   2  686
1 1
     2.128916846340616    -0.000000000000000     0.000000000000000
    -0.000000000000000     2.128916846340620     0.000000000000000
     0.000000000000000     0.000000000000000     2.128916846340620
1 2
     0.069476124309402    -0.000000000000000    -0.000000000000000
    -0.000000000000000    -0.022309341092432    -0.204339540850593
    -0.000000000000000    -0.204339540850593    -0.022309341092432
1 3
     0.009587008370026    -0.000000000000000    -0.000000000000000
    -0.000000000000000    -0.000868272496598    -0.024159010286020
    -0.000000000000000    -0.024159010286020    -0.000868272496598
1 4
     0.002209763321907    -0.000000000000000    -0.000000000000000
    -0.000000000000000    -0.002663793390726    -0.007937803948905
    -0.000000000000000    -0.007937803948905    -0.002663793390726
1 5
     0.002209763321907    -0.000000000000000    -0.000000000000000
    -0.000000000000000    -0.002663793390726    -0.007937803948905
    -0.000000000000000    -0.007937803948905    -0.002663793390726
1 6
     0.009587008370026    -0.000000000000000    -0.000000000000000
    -0.000000000000000    -0.000868272496598    -0.024159010286020
    -0.000000000000000    -0.024159010286020    -0.000868272496598
1 7
     0.069476124309402    -0.000000000000000    -0.000000000000000
    -0.000000000000000    -0.022309341092432    -0.204339540850593
    -0.000000000000000    -0.204339540850593    -0.022309341092432
1 8
    -0.022309341092432    -0.000000000000000    -0.204339540850593
    -0.000000000000000     0.069476124309402    -0.000000000000000
    -0.204339540850593    -0.000000000000000    -0.022309341092432
1 9
     0.009281184687163    -0.003347089948747    -0.021437179508537
    -0.003347089948747     0.009281184687163    -0.021437179508537
    -0.021437179508537    -0.021437179508537    -0.016441238692060
1 10
     0.002310172484835    -0.001385487349387    -0.003899163568158
    -0.001385487349387    -0.000304178061907    -0.008304703979993
    -0.003899163568158    -0.008304703979993    -0.005920020118090
1 11
     0.000741102537382     0.000510354319321    -0.000510354319321
     0.000510354319321    -0.002791426164730    -0.005410073982858
    -0.000510354319321    -0.005410073982858    -0.002791426164730
1 12
     0.002310172484835     0.003899163568158     0.001385487349387
     0.003899163568158    -0.005920020118090    -0.008304703979993
     0.001385487349387    -0.008304703979993    -0.000304178061907
1 13
     0.009281184687163     0.021437179508537     0.003347089948747
     0.021437179508537    -0.016441238692060    -0.021437179508537
     0.003347089948747    -0.021437179508537     0.009281184687163
1 14
    -0.022309341092432     0.204339540850593     0.000000000000000
     0.204339540850593    -0.022309341092432     0.000000000000000
     0.000000000000000     0.000000000000000     0.069476124309402
1 15
    -0.000868272496598    -0.000000000000000    -0.024159010286019
    -0.000000000000000     0.009587008370026     0.000000000000000
    -0.024159010286019     0.000000000000000    -0.000868272496598
1 16
    -0.000304178061907    -0.001385487349387    -0.008304703979993
    -0.001385487349387     0.002310172484835    -0.003899163568158
    -0.008304703979993    -0.003899163568158    -0.005920020118090
1 17
    -0.000941988378537     0.000297338401489    -0.002859363046423
     0.000297338401489    -0.000941988378537    -0.002859363046423
    -0.002859363046423    -0.002859363046423    -0.003209856602497
1 18
    -0.000941988378537     0.002859363046423    -0.000297338401489
     0.002859363046423    -0.003209856602497    -0.002859363046423
    -0.000297338401489    -0.002859363046423    -0.000941988378537
1 19
    -0.000304178061907     0.008304703979993     0.001385487349387
     0.008304703979993    -0.005920020118090    -0.003899163568158
     0.001385487349387    -0.003899163568158     0.002310172484835
1 20
    -0.000868272496598     0.024159010286020     0.000000000000000
     0.024159010286020    -0.000868272496598     0.000000000000000
     0.000000000000000     0.000000000000000     0.009587008370026
1 21
    -0.016441238692060     0.021437179508537    -0.021437179508537
     0.021437179508537     0.009281184687163     0.003347089948747
    -0.021437179508537     0.003347089948747     0.009281184687163
1 22
    -0.002663793390726    -0.000000000000000    -0.007937803948905
    -0.000000000000000     0.002209763321907    -0.000000000000000
    -0.007937803948905    -0.000000000000000    -0.002663793390726
1 23
    -0.002791426164730     0.000510354319321    -0.005410073982858
     0.000510354319321     0.000741102537382    -0.000510354319321
    -0.005410073982858    -0.000510354319321    -0.002791426164730
1 24
    -0.003209856602497     0.002859363046423    -0.002859363046423
     0.002859363046423    -0.000941988378537    -0.000297338401489
    -0.002859363046423    -0.000297338401489    -0.000941988378537
1 25
    -0.002791426164730     0.005410073982858    -0.000510354319321
     0.005410073982858    -0.002791426164730    -0.000510354319321
    -0.000510354319321    -0.000510354319321     0.000741102537382
1 26
    -0.002663793390726     0.007937803948905     0.000000000000000
     0.007937803948905    -0.002663793390726     0.000000000000000
     0.000000000000000     0.000000000000000     0.002209763321907
1 27
    -0.005920020118090     0.008304703979993    -0.003899163568158
     0.008304703979993    -0.000304178061907     0.001385487349387
    -0.003899163568158     0.001385487349387     0.002310172484835
1 28
    -0.005920020118090     0.003899163568158    -0.008304703979993
     0.003899163568158     0.002310172484835     0.001385487349387
    -0.008304703979993     0.001385487349387    -0.000304178061907
1 29
    -0.002663793390726    -0.000000000000000    -0.007937803948905
    -0.000000000000000     0.002209763321907    -0.000000000000000
    -0.007937803948905    -0.000000000000000    -0.002663793390726
1 30
    -0.005920020118090     0.003899163568158    -0.008304703979993
     0.003899163568158     0.002310172484835     0.001385487349387
    -0.008304703979993     0.001385487349387    -0.000304178061907
1 31
    -0.005920020118090     0.008304703979993    -0.003899163568158
     0.008304703979993    -0.000304178061907     0.001385487349387
    -0.003899163568158     0.001385487349387     0.002310172484835
1 32
    -0.002663793390726     0.007937803948905     0.000000000000000
     0.007937803948905    -0.002663793390726     0.000000000000000
     0.000000000000000     0.000000000000000     0.002209763321907
1 33
    -0.002791426164730     0.005410073982858    -0.000510354319321
     0.005410073982858    -0.002791426164730    -0.000510354319321
    -0.000510354319321    -0.000510354319321     0.000741102537382
1 34
    -0.003209856602497     0.002859363046423    -0.002859363046423
     0.002859363046423    -0.000941988378537    -0.000297338401489
    -0.002859363046423    -0.000297338401489    -0.000941988378537
1 35
    -0.002791426164730     0.000510354319321    -0.005410073982858
     0.000510354319321     0.000741102537382    -0.000510354319321
    -0.005410073982858    -0.000510354319321    -0.002791426164730
1 36
    -0.000868272496598    -0.000000000000000    -0.024159010286019
    -0.000000000000000     0.009587008370026     0.000000000000000
    -0.024159010286019     0.000000000000000    -0.000868272496598
1 37
    -0.016441238692060     0.021437179508537    -0.021437179508537
     0.021437179508537     0.009281184687163     0.003347089948747
    -0.021437179508537     0.003347089948747     0.009281184687163
1 38
    -0.000868272496598     0.024159010286020     0.000000000000000
     0.024159010286020    -0.000868272496598     0.000000000000000
     0.000000000000000     0.000000000000000     0.009587008370026
1 39
    -0.000304178061907     0.008304703979993     0.001385487349387
     0.008304703979993    -0.005920020118090    -0.003899163568158
     0.001385487349387    -0.003899163568158     0.002310172484835
1 40
    -0.000941988378537     0.002859363046423    -0.000297338401489
     0.002859363046423    -0.003209856602497    -0.002859363046423
    -0.000297338401489    -0.002859363046423    -0.000941988378537
1 41
    -0.000941988378537     0.000297338401489    -0.002859363046423
     0.000297338401489    -0.000941988378537    -0.002859363046423
    -0.002859363046423    -0.002859363046423    -0.003209856602497
1 42
    -0.000304178061907    -0.001385487349387    -0.008304703979993
    -0.001385487349387     0.002310172484835    -0.003899163568158
    -0.008304703979993    -0.003899163568158    -0.005920020118090
1 43
    -0.022309341092432    -0.000000000000000    -0.204339540850593
    -0.000000000000000     0.069476124309402    -0.000000000000000
    -0.204339540850593    -0.000000000000000    -0.022309341092432
1 44
    -0.022309341092432     0.204339540850593     0.000000000000000
     0.204339540850593    -0.022309341092432     0.000000000000000
     0.000000000000000     0.000000000000000     0.069476124309402
1 45
     0.009281184687163     0.021437179508537     0.003347089948747
     0.021437179508537    -0.016441238692060    -0.021437179508537
     0.003347089948747    -0.021437179508537     0.009281184687163
1 46
     0.002310172484835     0.003899163568158     0.001385487349387
     0.003899163568158    -0.005920020118090    -0.008304703979993
     0.001385487349387    -0.008304703979993    -0.000304178061907
1 47
     0.000741102537382     0.000510354319321    -0.000510354319321
     0.000510354319321    -0.002791426164730    -0.005410073982858
    -0.000510354319321    -0.005410073982858    -0.002791426164730
1 48
     0.002310172484835    -0.001385487349387    -0.003899163568158
    -0.001385487349387    -0.000304178061907    -0.008304703979993
    -0.003899163568158    -0.008304703979993    -0.005920020118090
1 49
     0.009281184687163    -0.003347089948747    -0.021437179508537
    -0.003347089948747     0.009281184687163    -0.021437179508537
    -0.021437179508537    -0.021437179508537    -0.016441238692060
1 50
    -0.022309341092432    -0.204339540850593    -0.000000000000000
    -0.204339540850593    -0.022309341092432     0.000000000000000
    -0.000000000000000     0.000000000000000     0.069476124309402
1 51
     0.009281184687163    -0.021437179508537    -0.003347089948747
    -0.021437179508537    -0.016441238692060    -0.021437179508537
    -0.003347089948747    -0.021437179508537     0.009281184687163
1 52
     0.002310172484835    -0.003899163568158    -0.001385487349387
    -0.003899163568158    -0.005920020118090    -0.008304703979993
    -0.001385487349387    -0.008304703979993    -0.000304178061907
1 53
     0.000741102537382    -0.000510354319321     0.000510354319321
    -0.000510354319321    -0.002791426164730    -0.005410073982858
     0.000510354319321    -0.005410073982858    -0.002791426164730
1 54
     0.002310172484835     0.001385487349387     0.003899163568158
     0.001385487349387    -0.000304178061907    -0.008304703979993
     0.003899163568158    -0.008304703979993    -0.005920020118090
1 55
     0.009281184687163     0.003347089948747     0.021437179508537
     0.003347089948747     0.009281184687163    -0.021437179508537
     0.021437179508537    -0.021437179508537    -0.016441238692060
1 56
    -0.022309341092432     0.000000000000000     0.204339540850593
     0.000000000000000     0.069476124309402    -0.000000000000000
     0.204339540850593    -0.000000000000000    -0.022309341092432
1 57
    -0.016441238692060    -0.021437179508537    -0.021437179508537
    -0.021437179508537     0.009281184687163    -0.003347089948747
    -0.021437179508537    -0.003347089948747     0.009281184687163
1 58
    -0.001120356064091    -0.006734308207325    -0.006734308207325
    -0.006734308207325    -0.001120356064091    -0.006734308207325
    -0.006734308207325    -0.006734308207325    -0.001120356064091
1 59
    -0.000397692933719    -0.001544144433416    -0.001544144433416
    -0.001544144433416    -0.002063106180108    -0.004060383914268
    -0.001544144433416    -0.004060383914268    -0.002063106180108
1 60
    -0.000397692933719     0.001544144433416     0.001544144433416
     0.001544144433416    -0.002063106180108    -0.004060383914268
     0.001544144433416    -0.004060383914268    -0.002063106180108
1 61
    -0.001120356064091     0.006734308207325     0.006734308207325
     0.006734308207325    -0.001120356064091    -0.006734308207325
     0.006734308207325    -0.006734308207325    -0.001120356064091
1 62
    -0.016441238692060     0.021437179508537     0.021437179508537
     0.021437179508537     0.009281184687163    -0.003347089948747
     0.021437179508537    -0.003347089948747     0.009281184687163
1 63
    -0.144252557158481     0.000000000000000     0.000000000000000
     0.000000000000000     0.012198707266339     0.000000000000000
     0.000000000000000     0.000000000000000     0.012198707266339
1 64
    -0.005920020118090    -0.003899163568158    -0.008304703979993
    -0.003899163568158     0.002310172484835    -0.001385487349387
    -0.008304703979993    -0.001385487349387    -0.000304178061907
1 65
    -0.002063106180108    -0.001544144433416    -0.004060383914268
    -0.001544144433416    -0.000397692933719    -0.001544144433416
    -0.004060383914268    -0.001544144433416    -0.002063106180108
1 66
    -0.001571843743879     0.001077984287919    -0.001077984287919
     0.001077984287919    -0.001571843743879    -0.001077984287919
    -0.001077984287919    -0.001077984287919    -0.001571843743879
1 67
    -0.002063106180108     0.004060383914268     0.001544144433416
     0.004060383914268    -0.002063106180108    -0.001544144433416
     0.001544144433416    -0.001544144433416    -0.000397692933719
1 68
    -0.005920020118090     0.008304703979993     0.003899163568158
     0.008304703979993    -0.000304178061907    -0.001385487349387
     0.003899163568158    -0.001385487349387     0.002310172484835
1 69
    -0.022048241913479     0.007884770940316     0.000000000000000
     0.007884770940316     0.003621855563936     0.000000000000000
     0.000000000000000     0.000000000000000     0.005107486911209
1 70
    -0.022048241913479    -0.000000000000000    -0.007884770940316
    -0.000000000000000     0.005107486911209     0.000000000000000
    -0.007884770940316     0.000000000000000     0.003621855563936
1 71
    -0.002791426164730    -0.000510354319321    -0.005410073982858
    -0.000510354319321     0.000741102537382     0.000510354319321
    -0.005410073982858     0.000510354319321    -0.002791426164730
1 72
    -0.002063106180108     0.001544144433416    -0.004060383914268
     0.001544144433416    -0.000397692933719     0.001544144433416
    -0.004060383914268     0.001544144433416    -0.002063106180108
1 73
    -0.002063106180108     0.004060383914268    -0.001544144433416
     0.004060383914268    -0.002063106180108     0.001544144433416
    -0.001544144433416     0.001544144433416    -0.000397692933719
1 74
    -0.002791426164730     0.005410073982858     0.000510354319321
     0.005410073982858    -0.002791426164730     0.000510354319321
     0.000510354319321     0.000510354319321     0.000741102537382
1 75
    -0.005951486369853     0.005131297134375     0.000000000000000
     0.005131297134375    -0.001505906036533     0.000000000000000
     0.000000000000000     0.000000000000000     0.001148396043346
1 76
    -0.008123895178353     0.002836470464382    -0.002836470464382
     0.002836470464382     0.000443940912589     0.000067528697603
    -0.002836470464382     0.000067528697603     0.000443940912589
1 77
    -0.005951486369853    -0.000000000000000    -0.005131297134375
    -0.000000000000000     0.001148396043346    -0.000000000000000
    -0.005131297134375    -0.000000000000000    -0.001505906036533
1 78
    -0.000304178061907     0.001385487349387    -0.008304703979993
     0.001385487349387     0.002310172484835     0.003899163568158
    -0.008304703979993     0.003899163568158    -0.005920020118090
1 79
    -0.001120356064091     0.006734308207325    -0.006734308207325
     0.006734308207325    -0.001120356064091     0.006734308207325
    -0.006734308207325     0.006734308207325    -0.001120356064091
1 80
    -0.000304178061907     0.008304703979993    -0.001385487349387
     0.008304703979993    -0.005920020118090     0.003899163568158
    -0.001385487349387     0.003899163568158     0.002310172484835
1 81
    -0.001505906036533     0.005131297134375     0.000000000000000
     0.005131297134375    -0.005951486369853     0.000000000000000
     0.000000000000000     0.000000000000000     0.001148396043346
1 82
    -0.002857363872076     0.002740038777098    -0.000898997883931
     0.002740038777098    -0.002857363872076    -0.000898997883931
    -0.000898997883931    -0.000898997883931    -0.000598157706185
1 83
    -0.002857363872076     0.000898997883931    -0.002740038777098
     0.000898997883931    -0.000598157706185    -0.000898997883931
    -0.002740038777098    -0.000898997883931    -0.002857363872076
1 84
    -0.001505906036533    -0.000000000000000    -0.005131297134375
    -0.000000000000000     0.001148396043346    -0.000000000000000
    -0.005131297134375    -0.000000000000000    -0.005951486369853
1 85
     0.009281184687163     0.003347089948747    -0.021437179508537
     0.003347089948747     0.009281184687163     0.021437179508537
    -0.021437179508537     0.021437179508537    -0.016441238692060
1 86
     0.009281184687163     0.021437179508537    -0.003347089948747
     0.021437179508537    -0.016441238692060     0.021437179508537
    -0.003347089948747     0.021437179508537     0.009281184687163
1 87
     0.003621855563936     0.007884770940316     0.000000000000000
     0.007884770940316    -0.022048241913479     0.000000000000000
     0.000000000000000     0.000000000000000     0.005107486911209
1 88
     0.000443940912589     0.002836470464382     0.000067528697603
     0.002836470464382    -0.008123895178353    -0.002836470464382
     0.000067528697603    -0.002836470464382     0.000443940912589
1 89
    -0.000598157706185     0.000898997883931    -0.000898997883931
     0.000898997883931    -0.002857363872076    -0.002740038777098
    -0.000898997883931    -0.002740038777098    -0.002857363872076
1 90
     0.000443940912589    -0.000067528697603    -0.002836470464382
    -0.000067528697603     0.000443940912589    -0.002836470464382
    -0.002836470464382    -0.002836470464382    -0.008123895178353
1 91
     0.003621855563936    -0.000000000000000    -0.007884770940316
    -0.000000000000000     0.005107486911209    -0.000000000000000
    -0.007884770940316    -0.000000000000000    -0.022048241913479
1 92
     0.069476124309402    -0.000000000000000    -0.000000000000000
    -0.000000000000000    -0.022309341092432     0.204339540850593
    -0.000000000000000     0.204339540850593    -0.022309341092432
1 93
     0.012198707266339    -0.000000000000000    -0.000000000000000
    -0.000000000000000    -0.144252557158481    -0.000000000000000
    -0.000000000000000    -0.000000000000000     0.012198707266339
1 94
     0.005107486911209    -0.000000000000000    -0.000000000000000
    -0.000000000000000    -0.022048241913479    -0.007884770940316
    -0.000000000000000    -0.007884770940316     0.003621855563936
1 95
     0.001148396043346    -0.000000000000000    -0.000000000000000
    -0.000000000000000    -0.005951486369853    -0.005131297134375
    -0.000000000000000    -0.005131297134375    -0.001505906036533
1 96
     0.001148396043346    -0.000000000000000    -0.000000000000000
    -0.000000000000000    -0.001505906036533    -0.005131297134375
    -0.000000000000000    -0.005131297134375    -0.005951486369853
1 97
     0.005107486911209    -0.000000000000000    -0.000000000000000
    -0.000000000000000     0.003621855563936    -0.007884770940316
    -0.000000000000000    -0.007884770940316    -0.022048241913479
1 98
     0.012198707266339    -0.000000000000000    -0.000000000000000
    -0.000000000000000     0.012198707266339    -0.000000000000000
    -0.000000000000000    -0.000000000000000    -0.144252557158481
1 99
    -0.000868272496598    -0.024159010286020    -0.000000000000000
    -0.024159010286020    -0.000868272496598     0.000000000000000
    -0.000000000000000     0.000000000000000     0.009587008370026
1 100
    -0.000304178061907    -0.008304703979993    -0.001385487349387
    -0.008304703979993    -0.005920020118090    -0.003899163568158
    -0.001385487349387    -0.003899163568158     0.002310172484835
1 101
    -0.000941988378537    -0.002859363046423     0.000297338401489
    -0.002859363046423    -0.003209856602497    -0.002859363046423
     0.000297338401489    -0.002859363046423    -0.000941988378537
1 102
    -0.000941988378537    -0.000297338401489     0.002859363046423
    -0.000297338401489    -0.000941988378537    -0.002859363046423
     0.002859363046423    -0.002859363046423    -0.003209856602497
1 103
    -0.000304178061907     0.001385487349387     0.008304703979993
     0.001385487349387     0.002310172484835    -0.003899163568158
     0.008304703979993    -0.003899163568158    -0.005920020118090
1 104
    -0.000868272496598     0.000000000000000     0.024159010286019
     0.000000000000000     0.009587008370026     0.000000000000000
     0.024159010286019     0.000000000000000    -0.000868272496598
1 105
    -0.016441238692060    -0.021437179508537     0.021437179508537
    -0.021437179508537     0.009281184687163     0.003347089948747
     0.021437179508537     0.003347089948747     0.009281184687163
1 106
    -0.005920020118090    -0.008304703979993    -0.003899163568158
    -0.008304703979993    -0.000304178061907    -0.001385487349387
    -0.003899163568158    -0.001385487349387     0.002310172484835
1 107
    -0.002063106180108    -0.004060383914268    -0.001544144433416
    -0.004060383914268    -0.002063106180108    -0.001544144433416
    -0.001544144433416    -0.001544144433416    -0.000397692933719
1 108
    -0.001571843743879    -0.001077984287919     0.001077984287919
    -0.001077984287919    -0.001571843743879    -0.001077984287919
     0.001077984287919    -0.001077984287919    -0.001571843743879
1 109
    -0.002063106180108     0.001544144433416     0.004060383914268
     0.001544144433416    -0.000397692933719    -0.001544144433416
     0.004060383914268    -0.001544144433416    -0.002063106180108
1 110
    -0.005920020118090     0.003899163568158     0.008304703979993
     0.003899163568158     0.002310172484835    -0.001385487349387
     0.008304703979993    -0.001385487349387    -0.000304178061907
1 111
    -0.022048241913479     0.000000000000000     0.007884770940316
     0.000000000000000     0.005107486911209     0.000000000000000
     0.007884770940316     0.000000000000000     0.003621855563936
1 112
    -0.022048241913479    -0.007884770940316    -0.000000000000000
    -0.007884770940316     0.003621855563936     0.000000000000000
    -0.000000000000000     0.000000000000000     0.005107486911209
1 113
    -0.003209856602497    -0.002859363046423    -0.002859363046423
    -0.002859363046423    -0.000941988378537     0.000297338401489
    -0.002859363046423     0.000297338401489    -0.000941988378537
1 114
    -0.001571843743879    -0.001077984287919    -0.001077984287919
    -0.001077984287919    -0.001571843743879     0.001077984287919
    -0.001077984287919     0.001077984287919    -0.001571843743879
1 115
    -0.001571843743879     0.001077984287919     0.001077984287919
     0.001077984287919    -0.001571843743879     0.001077984287919
     0.001077984287919     0.001077984287919    -0.001571843743879
1 116
    -0.003209856602497     0.002859363046423     0.002859363046423
     0.002859363046423    -0.000941988378537     0.000297338401489
     0.002859363046423     0.000297338401489    -0.000941988378537
1 117
    -0.008123895178353     0.002836470464382     0.002836470464382
     0.002836470464382     0.000443940912589    -0.000067528697603
     0.002836470464382    -0.000067528697603     0.000443940912589
1 118
    -0.012396234350282    -0.000000000000000     0.000000000000000
    -0.000000000000000     0.001297242020786     0.000000000000000
     0.000000000000000     0.000000000000000     0.001297242020786
1 119
    -0.008123895178353    -0.002836470464382    -0.002836470464382
    -0.002836470464382     0.000443940912589    -0.000067528697603
    -0.002836470464382    -0.000067528697603     0.000443940912589
1 120
    -0.000941988378537    -0.000297338401489    -0.002859363046423
    -0.000297338401489    -0.000941988378537     0.002859363046423
    -0.002859363046423     0.002859363046423    -0.003209856602497
1 121
    -0.000397692933719     0.001544144433416    -0.001544144433416
     0.001544144433416    -0.002063106180108     0.004060383914268
    -0.001544144433416     0.004060383914268    -0.002063106180108
1 122
    -0.000941988378537     0.002859363046423     0.000297338401489
     0.002859363046423    -0.003209856602497     0.002859363046423
     0.000297338401489     0.002859363046423    -0.000941988378537
1 123
    -0.002857363872076     0.002740038777098     0.000898997883931
     0.002740038777098    -0.002857363872076     0.000898997883931
     0.000898997883931     0.000898997883931    -0.000598157706185
1 124
    -0.004975148681730     0.001619539693960     0.000000000000000
     0.001619539693960    -0.001492117454300     0.000000000000000
     0.000000000000000     0.000000000000000    -0.000659322442758
1 125
    -0.004975148681730    -0.000000000000000    -0.001619539693960
    -0.000000000000000    -0.000659322442758    -0.000000000000000
    -0.001619539693960    -0.000000000000000    -0.001492117454300
1 126
    -0.002857363872076    -0.000898997883931    -0.002740038777098
    -0.000898997883931    -0.000598157706185     0.000898997883931
    -0.002740038777098     0.000898997883931    -0.002857363872076
1 127
     0.002310172484835     0.001385487349387    -0.003899163568158
     0.001385487349387    -0.000304178061907     0.008304703979993
    -0.003899163568158     0.008304703979993    -0.005920020118090
1 128
     0.002310172484835     0.003899163568158    -0.001385487349387
     0.003899163568158    -0.005920020118090     0.008304703979993
    -0.001385487349387     0.008304703979993    -0.000304178061907
1 129
     0.000443940912589     0.002836470464382    -0.000067528697603
     0.002836470464382    -0.008123895178353     0.002836470464382
    -0.000067528697603     0.002836470464382     0.000443940912589
1 130
    -0.001492117454300     0.001619539693960     0.000000000000000
     0.001619539693960    -0.004975148681730    -0.000000000000000
     0.000000000000000    -0.000000000000000    -0.000659322442758
1 131
    -0.002305820582750     0.000651068568778    -0.000651068568778
     0.000651068568778    -0.002305820582750    -0.000651068568778
    -0.000651068568778    -0.000651068568778    -0.002305820582750
1 132
    -0.001492117454300    -0.000000000000000    -0.001619539693960
    -0.000000000000000    -0.000659322442758    -0.000000000000000
    -0.001619539693960    -0.000000000000000    -0.004975148681730
1 133
     0.000443940912589     0.000067528697603    -0.002836470464382
     0.000067528697603     0.000443940912589     0.002836470464382
    -0.002836470464382     0.002836470464382    -0.008123895178353
1 134
     0.009587008370026    -0.000000000000000    -0.000000000000000
    -0.000000000000000    -0.000868272496598     0.024159010286020
    -0.000000000000000     0.024159010286020    -0.000868272496598
1 135
     0.005107486911209    -0.000000000000000    -0.000000000000000
    -0.000000000000000    -0.022048241913479     0.007884770940316
    -0.000000000000000     0.007884770940316     0.003621855563936
1 136
     0.001297242020786    -0.000000000000000    -0.000000000000000
    -0.000000000000000    -0.012396234350282    -0.000000000000000
    -0.000000000000000    -0.000000000000000     0.001297242020786
1 137
    -0.000659322442758    -0.000000000000000    -0.000000000000000
    -0.000000000000000    -0.004975148681730    -0.001619539693960
    -0.000000000000000    -0.001619539693960    -0.001492117454300
1 138
    -0.000659322442758    -0.000000000000000    -0.000000000000000
    -0.000000000000000    -0.001492117454300    -0.001619539693960
    -0.000000000000000    -0.001619539693960    -0.004975148681730
1 139
     0.001297242020786    -0.000000000000000    -0.000000000000000
    -0.000000000000000     0.001297242020786    -0.000000000000000
    -0.000000000000000    -0.000000000000000    -0.012396234350282
1 140
     0.005107486911209    -0.000000000000000    -0.000000000000000
    -0.000000000000000     0.003621855563936     0.007884770940316
    -0.000000000000000     0.007884770940316    -0.022048241913479
1 141
     0.009281184687163    -0.021437179508537     0.003347089948747
    -0.021437179508537    -0.016441238692060     0.021437179508537
     0.003347089948747     0.021437179508537     0.009281184687163
1 142
     0.003621855563936    -0.007884770940316    -0.000000000000000
    -0.007884770940316    -0.022048241913479     0.000000000000000
    -0.000000000000000     0.000000000000000     0.005107486911209
1 143
     0.000443940912589    -0.002836470464382    -0.000067528697603
    -0.002836470464382    -0.008123895178353    -0.002836470464382
    -0.000067528697603    -0.002836470464382     0.000443940912589
1 144
    -0.000598157706185    -0.000898997883931     0.000898997883931
    -0.000898997883931    -0.002857363872076    -0.002740038777098
     0.000898997883931    -0.002740038777098    -0.002857363872076
1 145
     0.000443940912589     0.000067528697603     0.002836470464382
     0.000067528697603     0.000443940912589    -0.002836470464382
     0.002836470464382    -0.002836470464382    -0.008123895178353
1 146
     0.003621855563936     0.000000000000000     0.007884770940316