   2 2000
1 1
    45.191887341085419    -0.000000000000003     0.000000000000006
    -0.000000000000003    45.191887341085376     0.000000000000001
     0.000000000000006     0.000000000000001    45.191887341085391
1 2
     1.370925890250024     0.748472793051001     0.748472793051001
    -0.748472793051001    -1.537753611520142    -1.595739363588870
    -0.748472793051001    -1.595739363588870    -1.537753611520142
1 3
     0.142609286437314     0.069431787116531     0.069431787116531
    -0.069431787116531    -0.031967776439746    -0.049942244848424
    -0.069431787116531    -0.049942244848424    -0.031967776439746
1 4
     0.024702412654973     0.010164836756252     0.010164836756252
    -0.010164836756252    -0.003656988687990    -0.006443864096953
    -0.010164836756252    -0.006443864096953    -0.003656988687990
1 5
     0.004938424567419     0.001655160198062     0.001655160198062
    -0.001655160198062    -0.000653375858204    -0.001204733178447
    -0.001655160198062    -0.001204733178447    -0.000653375858204
1 6
     0.001948069989781    -0.000000000000000    -0.000000000000000
    -0.000000000000000    -0.000297701147268    -0.000595030356368
    -0.000000000000000    -0.000595030356368    -0.000297701147268
1 7
     0.004938424567419    -0.001655160198062    -0.001655160198062
     0.001655160198062    -0.000653375858204    -0.001204733178447
     0.001655160198062    -0.001204733178447    -0.000653375858204
1 8
     0.024702412654973    -0.010164836756252    -0.010164836756252
     0.010164836756252    -0.003656988687990    -0.006443864096953
     0.010164836756252    -0.006443864096953    -0.003656988687990
1 9
     0.142609286437314    -0.069431787116531    -0.069431787116531
     0.069431787116531    -0.031967776439746    -0.049942244848424
     0.069431787116531    -0.049942244848424    -0.031967776439746
1 10
     1.370925890250024    -0.748472793051001    -0.748472793051001
     0.748472793051001    -1.537753611520142    -1.595739363588870
     0.748472793051001    -1.595739363588870    -1.537753611520142
1 11
    -1.537753611520142    -0.748472793051001    -1.595739363588870
     0.748472793051001     1.370925890250024     0.748472793051001
    -1.595739363588870    -0.748472793051001    -1.537753611520142
1 12
    -0.039351120283853     0.028573831474358    -0.023383667700448
     0.028573831474358    -0.039351120283853    -0.023383667700448
     0.015806311433253     0.015806311433253     0.029308859781013
1 13
    -0.004957976777025     0.002816759862857    -0.007576649160414
     0.009168788466603     0.001924470300959     0.004160262747111
     0.000202497704462    -0.002558400722681     0.002782897933319
1 14
     0.000018729137313     0.000673695985775    -0.001218344983984
     0.001633858606279     0.000458019225125     0.000763940488724
     0.000071241008205    -0.000584688919694     0.000605539377351
1 15
     0.000406753983489     0.000109336386041    -0.000237234325088
     0.000191449161006     0.000100753523931    -0.000016617009358
    -0.000089449007820    -0.000197459568646     0.000139909561939
1 16
     0.000406753983489     0.000237234325088    -0.000109336386041
     0.000089449007820     0.000139909561939    -0.000197459568646
    -0.000191449161006    -0.000016617009358     0.000100753523931
1 17
     0.000018729137313     0.001218344983984    -0.000673695985775
    -0.000071241008205     0.000605539377351    -0.000584688919694
    -0.001633858606279     0.000763940488724     0.000458019225125
1 18
    -0.004957976777025     0.007576649160414    -0.002816759862857
    -0.000202497704462     0.002782897933319    -0.002558400722681
    -0.009168788466603     0.004160262747111     0.001924470300959
1 19
    -0.039351120283853     0.023383667700448    -0.028573831474358
    -0.015806311433253     0.029308859781013     0.015806311433253
    -0.028573831474358    -0.023383667700448    -0.039351120283853
1 20
    -1.537753611520142     1.595739363588871     0.748472793051001
     1.595739363588871    -1.537753611520142    -0.748472793051001
    -0.748472793051001     0.748472793051001     1.370925890250024
1 21
    -0.031967776439746    -0.069431787116531    -0.049942244848424
     0.069431787116531     0.142609286437314     0.069431787116531
    -0.049942244848424    -0.069431787116531    -0.031967776439746
1 22
     0.001924470300959     0.009168788466603     0.004160262747111
     0.002816759862857    -0.004957976777025    -0.007576649160414
    -0.002558400722681     0.000202497704462     0.002782897933319
1 23
     0.000080247427277     0.001561203384512    -0.000230428422319
     0.001561203384512     0.000080247427277    -0.000230428422319
    -0.001028133259845    -0.001028133259845    -0.000229995672969
1 24
     0.000147422571489     0.000369021351432    -0.000160159685939
     0.000401813428409     0.000024297603215    -0.000066644814127
    -0.000233168461096    -0.000303879139215    -0.000029884453893
1 25
     0.000199218143211     0.000130019259391    -0.000130019259391
     0.000142040074671     0.000026772476949    -0.000042691571914
    -0.000142040074671    -0.000042691571914     0.000026772476949
1 26
     0.000147422571489     0.000160159685939    -0.000369021351432
     0.000233168461096    -0.000029884453893    -0.000303879139215
    -0.000401813428409    -0.000066644814127     0.000024297603215
1 27
     0.000080247427277     0.000230428422319    -0.001561203384512
     0.001028133259845    -0.000229995672969    -0.001028133259845
    -0.001561203384512    -0.000230428422319     0.000080247427277
1 28
     0.001924470300959    -0.004160262747111    -0.009168788466603
     0.002558400722681     0.002782897933319     0.000202497704462
    -0.002816759862857    -0.007576649160414    -0.004957976777025
1 29
    -0.031967776439746     0.049942244848424     0.069431787116531
     0.049942244848424    -0.031967776439746    -0.069431787116531
    -0.069431787116531     0.069431787116531     0.142609286437314
1 30
     0.029308859781013     0.023383667700448    -0.023383667700448
    -0.015806311433253    -0.039351120283853    -0.028573831474358
     0.015806311433253    -0.028573831474358    -0.039351120283853
1 31
    -0.003656988687990    -0.010164836756252    -0.006443864096953
     0.010164836756252     0.024702412654973     0.010164836756252
    -0.006443864096953    -0.010164836756252    -0.003656988687990
1 32
     0.000458019225125     0.001633858606279     0.000763940488724
     0.000673695985775     0.000018729137313    -0.001218344983984
    -0.000584688919694     0.000071241008205     0.000605539377351
1 33
     0.000024297603215     0.000401813428409    -0.000066644814127
     0.000369021351432     0.000147422571489    -0.000160159685939
    -0.000303879139215    -0.000233168461096    -0.000029884453893
1 34
     0.000061774262618     0.000188090403796    -0.000041630911742
     0.000188090403796     0.000061774262618    -0.000041630911742
    -0.000081140503141    -0.000081140503141     0.000016431040274
1 35
     0.000061774262618     0.000041630911742    -0.000188090403796
     0.000081140503141     0.000016431040274    -0.000081140503141
    -0.000188090403796    -0.000041630911742     0.000061774262618
1 36
     0.000024297603215     0.000066644814127    -0.000401813428409
     0.000303879139215    -0.000029884453893    -0.000233168461096
    -0.000369021351432    -0.000160159685939     0.000147422571489
1 37
     0.000458019225125    -0.000763940488724    -0.001633858606279
     0.000584688919694     0.000605539377351     0.000071241008205
    -0.000673695985775    -0.001218344983984     0.000018729137313
1 38
    -0.003656988687990     0.006443864096953     0.010164836756252
     0.006443864096953    -0.003656988687990    -0.010164836756252
    -0.010164836756252     0.010164836756252     0.024702412654973
1 39
     0.002782897933319    -0.004160262747111    -0.007576649160414
     0.002558400722681     0.001924470300959    -0.002816759862857
     0.000202497704462    -0.009168788466603    -0.004957976777025
1 40
     0.002782897933319     0.007576649160414     0.004160262747111
    -0.000202497704462    -0.004957976777025    -0.009168788466603
    -0.002558400722681    -0.002816759862857     0.001924470300959
1 41
    -0.000653375858205    -0.001655160198062    -0.001204733178447
     0.001655160198062     0.004938424567419     0.001655160198062
    -0.001204733178447    -0.001655160198062    -0.000653375858204
1 42
     0.000100753523931     0.000191449161006    -0.000016617009358
     0.000109336386041     0.000406753983489    -0.000237234325088
    -0.000197459568646    -0.000089449007820     0.000139909561939
1 43
     0.000026772476949     0.000142040074671    -0.000042691571914
     0.000130019259391     0.000199218143211    -0.000130019259391
    -0.000042691571914    -0.000142040074671     0.000026772476949
1 44
     0.000016431040274     0.000081140503141    -0.000081140503141
     0.000041630911742     0.000061774262618    -0.000188090403796
    -0.000041630911742    -0.000188090403796     0.000061774262618
1 45
     0.000026772476949     0.000042691571914    -0.000142040074671
     0.000042691571914     0.000026772476949    -0.000142040074671
    -0.000130019259391    -0.000130019259391     0.000199218143211
1 46
     0.000100753523931     0.000016617009358    -0.000191449161006
     0.000197459568646     0.000139909561939    -0.000089449007820
    -0.000109336386041    -0.000237234325088     0.000406753983489
1 47
    -0.000653375858205     0.001204733178447     0.001655160198062
     0.001204733178447    -0.000653375858204    -0.001655160198062
    -0.001655160198062     0.001655160198062     0.004938424567419
1 48
     0.000605539377350    -0.000763940488724    -0.001218344983984
     0.000584688919694     0.000458019225125    -0.000673695985775
     0.000071241008205    -0.001633858606279     0.000018729137313
1 49
    -0.000229995672969     0.000230428422319    -0.000230428422319
     0.001028133259845     0.000080247427277    -0.001561203384512
    -0.001028133259845    -0.001561203384512     0.000080247427277
1 50
     0.000605539377350     0.001218344983984     0.000763940488724
    -0.000071241008205     0.000018729137313    -0.001633858606279
    -0.000584688919694    -0.000673695985775     0.000458019225125
1 51
    -0.000297701147268    -0.000000000000000    -0.000595030356368
    -0.000000000000000     0.001948069989781    -0.000000000000000
    -0.000595030356368    -0.000000000000000    -0.000297701147268
1 52
     0.000139909561939     0.000089449007820    -0.000197459568646
     0.000237234325088     0.000406753983489    -0.000109336386041
    -0.000016617009358    -0.000191449161006     0.000100753523931
1 53
    -0.000029884453893     0.000233168461096    -0.000303879139215
     0.000160159685939     0.000147422571489    -0.000369021351432
    -0.000066644814127    -0.000401813428409     0.000024297603215
1 54
    -0.000029884453893     0.000303879139215    -0.000233168461096
     0.000066644814127     0.000024297603215    -0.000401813428409
    -0.000160159685939    -0.000369021351432     0.000147422571489
1 55
     0.000139909561939     0.000197459568646    -0.000089449007820
     0.000016617009358     0.000100753523931    -0.000191449161006
    -0.000237234325088    -0.000109336386041     0.000406753983489
1 56
    -0.000297701147268     0.000595030356368    -0.000000000000000
     0.000595030356368    -0.000297701147268    -0.000000000000000
    -0.000000000000000    -0.000000000000000     0.001948069989781
1 57
     0.000139909561939     0.000016617009358    -0.000237234325088
     0.000197459568646     0.000100753523931    -0.000109336386041
    -0.000089449007820    -0.000191449161006     0.000406753983489
1 58
    -0.000029884453893     0.000066644814127    -0.000160159685939
     0.000303879139215     0.000024297603215    -0.000369021351432
    -0.000233168461096    -0.000401813428409     0.000147422571489
1 59
    -0.000029884453893     0.000160159685939    -0.000066644814127
     0.000233168461096     0.000147422571489    -0.000401813428409
    -0.000303879139215    -0.000369021351432     0.000024297603215
1 60
     0.000139909561939     0.000237234325088    -0.000016617009358
     0.000089449007820     0.000406753983489    -0.000191449161006
    -0.000197459568646    -0.000109336386041     0.000100753523931
1 61
    -0.000653375858205     0.001655160198062    -0.001204733178447
    -0.001655160198062     0.004938424567419    -0.001655160198062
    -0.001204733178447     0.001655160198062    -0.000653375858204
1 62
     0.000605539377350    -0.000071241008205    -0.000584688919694
     0.001218344983984     0.000018729137313    -0.000673695985775
     0.000763940488724    -0.001633858606279     0.000458019225125
1 63
    -0.000229995672969     0.001028133259845    -0.001028133259845
     0.000230428422319     0.000080247427277    -0.001561203384512
    -0.000230428422319    -0.001561203384512     0.000080247427277
1 64
     0.000605539377350     0.000584688919694     0.000071241008205
    -0.000763940488724     0.000458019225125    -0.001633858606279
    -0.001218344983984    -0.000673695985775     0.000018729137313
1 65
    -0.000653375858205     0.001204733178447    -0.001655160198062
     0.001204733178447    -0.000653375858204     0.001655160198062
     0.001655160198062    -0.001655160198062     0.004938424567419
1 66
     0.000100753523931     0.000197459568646    -0.000109336386041
     0.000016617009358     0.000139909561939    -0.000237234325088
    -0.000191449161006    -0.000089449007820     0.000406753983489
1 67
     0.000026772476949     0.000042691571914    -0.000130019259391
     0.000042691571914     0.000026772476949    -0.000130019259391
    -0.000142040074671    -0.000142040074671     0.000199218143211
1 68
     0.000016431040274     0.000041630911742    -0.000041630911742
     0.000081140503141     0.000061774262618    -0.000188090403796
    -0.000081140503141    -0.000188090403796     0.000061774262618
1 69
     0.000026772476949     0.000130019259391    -0.000042691571914
     0.000142040074671     0.000199218143211    -0.000142040074671
    -0.000042691571914    -0.000130019259391     0.000026772476949
1 70
     0.000100753523931     0.000109336386041    -0.000197459568646
     0.000191449161006     0.000406753983489    -0.000089449007820
    -0.000016617009358    -0.000237234325088     0.000139909561939
1 71
    -0.003656988687990     0.010164836756252    -0.006443864096953
    -0.010164836756252     0.024702412654973    -0.010164836756252
    -0.006443864096953     0.010164836756252    -0.003656988687990
1 72
     0.002782897933319    -0.000202497704462    -0.002558400722681
     0.007576649160414    -0.004957976777025    -0.002816759862857
     0.004160262747111    -0.009168788466603     0.001924470300959
1 73
     0.002782897933319     0.002558400722681     0.000202497704462
    -0.004160262747111     0.001924470300959    -0.009168788466603
    -0.007576649160414    -0.002816759862857    -0.004957976777025
1 74
    -0.003656988687990     0.006443864096953    -0.010164836756252
     0.006443864096953    -0.003656988687990     0.010164836756252
     0.010164836756252    -0.010164836756252     0.024702412654973
1 75
     0.000458019225125     0.000584688919694    -0.000673695985775
    -0.000763940488724     0.000605539377351    -0.001218344983984
    -0.001633858606279     0.000071241008205     0.000018729137313
1 76
     0.000024297603215     0.000303879139215    -0.000369021351432
     0.000066644814127    -0.000029884453893    -0.000160159685939
    -0.000401813428409    -0.000233168461096     0.000147422571489
1 77
     0.000061774262618     0.000081140503141    -0.000188090403796
     0.000041630911742     0.000016431040274    -0.000041630911742
    -0.000188090403796    -0.000081140503141     0.000061774262618
1 78
     0.000061774262618     0.000188090403796    -0.000081140503141
     0.000188090403796     0.000061774262618    -0.000081140503141
    -0.000041630911742    -0.000041630911742     0.000016431040274
1 79
     0.000024297603215     0.000369021351432    -0.000303879139215
     0.000401813428409     0.000147422571489    -0.000233168461096
    -0.000066644814127    -0.000160159685939    -0.000029884453893
1 80
     0.000458019225125     0.000673695985775    -0.000584688919694
     0.001633858606279     0.000018729137313     0.000071241008205
     0.000763940488724    -0.001218344983984     0.000605539377351
1 81
    -0.031967776439746     0.069431787116531    -0.049942244848424
    -0.069431787116531     0.142609286437314    -0.069431787116531
    -0.049942244848424     0.069431787116531    -0.031967776439746
1 82
     0.029308859781013    -0.015806311433253     0.015806311433253
     0.023383667700448    -0.039351120283853    -0.028573831474358
    -0.023383667700448    -0.028573831474358    -0.039351120283853
1 83
    -0.031967776439746     0.049942244848424    -0.069431787116531
     0.049942244848424    -0.031967776439746     0.069431787116531
     0.069431787116531    -0.069431787116531     0.142609286437314
1 84
     0.001924470300959     0.002558400722681    -0.002816759862857
    -0.004160262747111     0.002782897933319    -0.007576649160414
    -0.009168788466603     0.000202497704462    -0.004957976777025
1 85
     0.000080247427277     0.001028133259845    -0.001561203384512
     0.000230428422319    -0.000229995672969    -0.000230428422319
    -0.001561203384512    -0.001028133259845     0.000080247427277
1 86
     0.000147422571489     0.000233168461096    -0.000401813428409
     0.000160159685939    -0.000029884453893    -0.000066644814127
    -0.000369021351432    -0.000303879139215     0.000024297603215
1 87
     0.000199218143211     0.000142040074671    -0.000142040074671
     0.000130019259391     0.000026772476949    -0.000042691571914
    -0.000130019259391    -0.000042691571914     0.000026772476949
1 88
     0.000147422571489     0.000401813428409    -0.000233168461096
     0.000369021351432     0.000024297603215    -0.000303879139215
    -0.000160159685939    -0.000066644814127    -0.000029884453893
1 89
     0.000080247427277     0.001561203384512    -0.001028133259845
     0.001561203384512     0.000080247427277    -0.001028133259845
    -0.000230428422319    -0.000230428422319    -0.000229995672969
1 90
     0.001924470300959     0.002816759862857    -0.002558400722681
     0.009168788466603    -0.004957976777025     0.000202497704462
     0.004160262747111    -0.007576649160414     0.002782897933319
1 91
    -1.537753611520142     0.748472793051001    -1.595739363588870
    -0.748472793051001     1.370925890250024    -0.748472793051001
    -1.595739363588870     0.748472793051001    -1.537753611520142
1 92
    -1.537753611520142     1.595739363588871    -0.748472793051001
     1.595739363588871    -1.537753611520142     0.748472793051001
     0.748472793051001    -0.748472793051001     1.370925890250024
1 93
    -0.039351120283853    -0.015806311433253    -0.028573831474358
     0.023383667700448     0.029308859781013    -0.023383667700448
    -0.028573831474358     0.015806311433253    -0.039351120283853
1 94
    -0.004957976777025    -0.000202497704462    -0.009168788466603
     0.007576649160414     0.002782897933319     0.004160262747111
    -0.002816759862857    -0.002558400722681     0.001924470300959
1 95
     0.000018729137313    -0.000071241008205    -0.001633858606279
     0.001218344983984     0.000605539377351     0.000763940488724
    -0.000673695985775    -0.000584688919694     0.000458019225125
1 96
     0.000406753983489     0.000089449007820    -0.000191449161006
     0.000237234325088     0.000139909561939    -0.000016617009358
    -0.000109336386041    -0.000197459568646     0.000100753523931
1 97
     0.000406753983489     0.000191449161006    -0.000089449007820
     0.000109336386041     0.000100753523931    -0.000197459568646
    -0.000237234325088    -0.000016617009358     0.000139909561939
1 98
     0.000018729137313     0.001633858606279     0.000071241008205
     0.000673695985775     0.000458019225125    -0.000584688919694
    -0.001218344983984     0.000763940488724     0.000605539377351
1 99
    -0.004957976777025     0.009168788466603     0.000202497704462
     0.002816759862857     0.001924470300959    -0.002558400722681
    -0.007576649160414     0.004160262747111     0.002782897933319
1 100
    -0.039351120283853     0.028573831474358     0.015806311433253
     0.028573831474358    -0.039351120283853     0.015806311433253
    -0.023383667700448    -0.023383667700448     0.029308859781013
1 101
    -1.537753611520142    -1.595739363588871    -0.748472793051001
    -1.595739363588871    -1.537753611520142    -0.748472793051001
     0.748472793051001     0.748472793051001     1.370925890250024
1 102
    -0.039351120283853    -0.023383667700448     0.028573831474358
     0.015806311433253     0.029308859781013     0.015806311433253
     0.028573831474358    -0.023383667700448    -0.039351120283853
1 103
    -0.004957976777025    -0.007576649160414     0.002816759862857
     0.000202497704462     0.002782897933319    -0.002558400722681
     0.009168788466603     0.004160262747111     0.001924470300959
1 104
     0.000018729137313    -0.001218344983984     0.000673695985775
     0.000071241008205     0.000605539377351    -0.000584688919694
     0.001633858606279     0.000763940488724     0.000458019225125
1 105
     0.000406753983489    -0.000237234325088     0.000109336386041
    -0.000089449007820     0.000139909561939    -0.000197459568646
     0.000191449161006    -0.000016617009358     0.000100753523931
1 106
     0.000406753983489    -0.000109336386041     0.000237234325088
    -0.000191449161006     0.000100753523931    -0.000016617009358
     0.000089449007820    -0.000197459568646     0.000139909561939
1 107
     0.000018729137313    -0.000673695985775     0.001218344983984
    -0.001633858606279     0.000458019225125     0.000763940488724
    -0.000071241008205    -0.000584688919694     0.000605539377351
1 108
    -0.004957976777025    -0.002816759862857     0.007576649160414
    -0.009168788466603     0.001924470300959     0.004160262747111
    -0.000202497704462    -0.002558400722681     0.002782897933319
1 109
    -0.039351120283853    -0.028573831474358     0.023383667700448
    -0.028573831474358    -0.039351120283853    -0.023383667700448
    -0.015806311433253     0.015806311433253     0.029308859781013
1 110
    -1.537753611520142     0.748472793051001     1.595739363588870
    -0.748472793051001     1.370925890250024     0.748472793051001
     1.595739363588871    -0.748472793051001    -1.537753611520142
1 111
     0.029308859781013     0.015806311433253     0.015806311433253
    -0.023383667700448    -0.039351120283853     0.028573831474358
    -0.023383667700448     0.028573831474358    -0.039351120283853
1 112
    -0.006516705287803     0.000264192771121     0.000264192771121
     0.000264192771121    -0.006516705287803     0.000264192771121
     0.000264192771121     0.000264192771121    -0.006516705287803
1 113
    -0.000788610030106     0.000195691801693     0.000195691801693
     0.000747058314324    -0.000368676990429    -0.000111811259775
     0.000747058314324    -0.000111811259775    -0.000368676990429
1 114
     0.000107117484962     0.000030317203243     0.000030317203243
     0.000168644967313    -0.000016802978441    -0.000185173588323
     0.000168644967313    -0.000185173588323    -0.000016802978441
1 115
     0.000270459151416    -0.000000000000000    -0.000000000000000
    -0.000000000000000     0.000062569757747    -0.000110131881170
    -0.000000000000000    -0.000110131881170     0.000062569757747
1 116
     0.000107117484962    -0.000030317203243    -0.000030317203243
    -0.000168644967313    -0.000016802978441    -0.000185173588323
    -0.000168644967313    -0.000185173588323    -0.000016802978441
1 117
    -0.000788610030106    -0.000195691801693    -0.000195691801693
    -0.000747058314324    -0.000368676990429    -0.000111811259775
    -0.000747058314324    -0.000111811259775    -0.000368676990429
1 118
    -0.006516705287803    -0.000264192771121    -0.000264192771121
    -0.000264192771121    -0.006516705287803     0.000264192771121
    -0.000264192771121     0.000264192771121    -0.006516705287803
1 119
     0.029308859781013    -0.015806311433253    -0.015806311433253
     0.023383667700448    -0.039351120283853     0.028573831474358
     0.023383667700448     0.028573831474358    -0.039351120283853
1 120
    -0.080519672579662    -0.000000000000000     0.000000000000000
    -0.000000000000000    -0.045343938642757     0.000000000000000
     0.000000000000000     0.000000000000000    -0.045343938642756
1 121
     0.002782897933319     0.000202497704462    -0.002558400722681
    -0.007576649160414    -0.004957976777025     0.002816759862857
     0.004160262747111     0.009168788466603     0.001924470300959
1 122
    -0.000368676990429     0.000747058314324    -0.000111811259775
     0.000195691801693    -0.000788610030106     0.000195691801693
    -0.000111811259775     0.000747058314324    -0.000368676990429
1 123
    -0.000048446006899     0.000289913780286    -0.000043045125305
     0.000289913780286    -0.000048446006899    -0.000043045125305
    -0.000027753941162    -0.000027753941162    -0.000035187754752
1 124
     0.000100930300626     0.000166523646969    -0.000042779960262
     0.000182610326241     0.000045245641608    -0.000051618795027
    -0.000017058951096    -0.000049497474683     0.000047455350299
1 125
     0.000100930300626     0.000042779960262    -0.000166523646969
     0.000017058951096     0.000047455350299    -0.000049497474683
    -0.000182610326241    -0.000051618795027     0.000045245641608
1 126
    -0.000048446006899     0.000043045125305    -0.000289913780286
     0.000027753941162    -0.000035187754752    -0.000027753941162
    -0.000289913780286    -0.000043045125305    -0.000048446006899
1 127
    -0.000368676990429     0.000111811259775    -0.000747058314324
     0.000111811259775    -0.000368676990429     0.000747058314324
    -0.000195691801693     0.000195691801693    -0.000788610030106
1 128
     0.002782897933319     0.002558400722681    -0.000202497704462
    -0.004160262747111     0.001924470300959     0.009168788466603
     0.007576649160414     0.002816759862857    -0.004957976777025
1 129
    -0.002435461723490    -0.003695781980219    -0.005917157933317
    -0.003695781980219    -0.007704821456892     0.000073008775158
     0.005917157933317    -0.000073008775158    -0.005346090011549
1 130
    -0.002435461723490     0.005917157933317     0.003695781980219
    -0.005917157933317    -0.005346090011549    -0.000073008775158
     0.003695781980219     0.000073008775158    -0.007704821456892
1 131
     0.000605539377350     0.000071241008205    -0.000584688919694
    -0.001218344983984     0.000018729137313     0.000673695985775
     0.000763940488724     0.001633858606279     0.000458019225125
1 132
    -0.000016802978441     0.000168644967313    -0.000185173588323
     0.000030317203243     0.000107117484962     0.000030317203243
    -0.000185173588323     0.000168644967313    -0.000016802978441
1 133
     0.000045245641608     0.000182610326241    -0.000051618795027
     0.000166523646969     0.000100930300626    -0.000042779960262
    -0.000049497474683    -0.000017058951096     0.000047455350299
1 134
     0.000043831428045     0.000098994949366    -0.000098994949366
     0.000098994949366     0.000043831428045    -0.000098994949366
    -0.000098994949366    -0.000098994949366     0.000043831428045
1 135
     0.000045245641608     0.000051618795027    -0.000182610326241
     0.000049497474683     0.000047455350299    -0.000017058951096
    -0.000166523646969    -0.000042779960262     0.000100930300626
1 136
    -0.000016802978441     0.000185173588323    -0.000168644967313
     0.000185173588323    -0.000016802978441     0.000168644967313
    -0.000030317203243     0.000030317203243     0.000107117484962
1 137
     0.000605539377350     0.000584688919694    -0.000071241008205
    -0.000763940488724     0.000458019225125     0.001633858606279
     0.001218344983984     0.000673695985775     0.000018729137313
1 138
     0.000336220082066    -0.000225301898156    -0.001076039744271
    -0.000225301898156    -0.000752017254180     0.000395272690683
     0.001076039744271    -0.000395272690683    -0.000502585337116
1 139
    -0.000331642272765     0.000407293505963    -0.000407293505963
    -0.001001705143898    -0.001470791297256    -0.000711879751960
     0.001001705143898    -0.000711879751960    -0.001470791297256
1 140
     0.000336220082066     0.001076039744271     0.000225301898156
    -0.001076039744271    -0.000502585337116    -0.000395272690683
     0.000225301898156     0.000395272690683    -0.000752017254180
1 141
     0.000139909561939    -0.000089449007820    -0.000197459568646
    -0.000237234325088     0.000406753983489     0.000109336386041
    -0.000016617009358     0.000191449161006     0.000100753523931
1 142
     0.000062569757747    -0.000000000000000    -0.000110131881170
    -0.000000000000000     0.000270459151416    -0.000000000000000
    -0.000110131881170    -0.000000000000000     0.000062569757747
1 143
     0.000047455350299     0.000017058951096    -0.000049497474683
     0.000042779960262     0.000100930300626    -0.000166523646969
    -0.000051618795027    -0.000182610326241     0.000045245641608
1 144
     0.000047455350299     0.000049497474683    -0.000017058951096
     0.000051618795027     0.000045245641608    -0.000182610326241
    -0.000042779960262    -0.000166523646969     0.000100930300626
1 145
     0.000062569757747     0.000110131881170    -0.000000000000000
     0.000110131881170     0.000062569757747    -0.000000000000000
    -0.000000000000000    -0.000000000000000     0.000270459151416
1 146
     0.000139909561939     0.000197459568646     0.000089449007820