   8  512
1 1
     2.708008594726559    -0.000000000000000    -0.000000000000000
    -0.000000000000000     2.708008594726560    -0.000000000000000
    -0.000000000000000    -0.000000000000000     2.708008594726553
1 2
    -0.916514405273438     0.000000000000000     0.000000000000000
     0.000000000000000    -0.109227405273438     0.000000000000000
     0.000000000000000     0.000000000000000    -0.109227405273438
1 3
    -0.359713405273438     0.000000000000000     0.000000000000000
     0.000000000000000    -0.000045405273438     0.000000000000000
     0.000000000000000     0.000000000000000    -0.000045405273438
1 4
    -0.916514405273438     0.000000000000000     0.000000000000000
     0.000000000000000    -0.109227405273438     0.000000000000000
     0.000000000000000     0.000000000000000    -0.109227405273438
1 5
    -0.109227405273438     0.000000000000000     0.000000000000000
     0.000000000000000    -0.916514405273437     0.000000000000000
     0.000000000000000     0.000000000000000    -0.109227405273438
1 6
    -0.026374905273438    -0.033481000000000     0.000000000000000
    -0.033481000000000    -0.026374905273438     0.000000000000000
     0.000000000000000     0.000000000000000    -0.002572405273438
1 7
    -0.016493405273438     0.000000000000000     0.000000000000000
     0.000000000000000    -0.021042405273438     0.000000000000000
     0.000000000000000     0.000000000000000    -0.001543405273438
1 8
    -0.026374905273438     0.033481000000000     0.000000000000000
     0.033481000000000    -0.026374905273438     0.000000000000000
     0.000000000000000     0.000000000000000    -0.002572405273438
1 9
    -0.000045405273437     0.000000000000000     0.000000000000000
     0.000000000000000    -0.359713405273437     0.000000000000000
     0.000000000000000     0.000000000000000    -0.000045405273438
1 10
    -0.021042405273437     0.000000000000000     0.000000000000000
     0.000000000000000    -0.016493405273438     0.000000000000000
     0.000000000000000     0.000000000000000    -0.001543405273438
1 11
    -0.013621405273437     0.000000000000000     0.000000000000000
     0.000000000000000    -0.013621405273438     0.000000000000000
     0.000000000000000     0.000000000000000    -0.002333405273438
1 12
    -0.021042405273437     0.000000000000000     0.000000000000000
     0.000000000000000    -0.016493405273438     0.000000000000000
     0.000000000000000     0.000000000000000    -0.001543405273438
1 13
    -0.109227405273438     0.000000000000000     0.000000000000000
     0.000000000000000    -0.916514405273437     0.000000000000000
     0.000000000000000     0.000000000000000    -0.109227405273438
1 14
    -0.026374905273438     0.033481000000000     0.000000000000000
     0.033481000000000    -0.026374905273438     0.000000000000000
     0.000000000000000     0.000000000000000    -0.002572405273438
1 15
    -0.016493405273438     0.000000000000000     0.000000000000000
     0.000000000000000    -0.021042405273438     0.000000000000000
     0.000000000000000     0.000000000000000    -0.001543405273438
1 16
    -0.026374905273438    -0.033481000000000     0.000000000000000
    -0.033481000000000    -0.026374905273438     0.000000000000000
     0.000000000000000     0.000000000000000    -0.002572405273438
1 17
    -0.109227405273438     0.000000000000000     0.000000000000000
     0.000000000000000    -0.109227405273438     0.000000000000000
     0.000000000000000     0.000000000000000    -0.916514405273437
1 18
    -0.026374905273438     0.000000000000000    -0.033481000000000
     0.000000000000000    -0.002572405273438     0.000000000000000
    -0.033481000000000     0.000000000000000    -0.026374905273438
1 19
    -0.016493405273438     0.000000000000000     0.000000000000000
     0.000000000000000    -0.001543405273438     0.000000000000000
     0.000000000000000     0.000000000000000    -0.021042405273438
1 20
    -0.026374905273438     0.000000000000000     0.033481000000000
     0.000000000000000    -0.002572405273438     0.000000000000000
     0.033481000000000     0.000000000000000    -0.026374905273438
1 21
    -0.002572405273437     0.000000000000000     0.000000000000000
     0.000000000000000    -0.026374905273438    -0.033481000000000
     0.000000000000000    -0.033481000000000    -0.026374905273438
1 22
    -0.015036405273437    -0.006723000000000    -0.006723000000000
    -0.006723000000000    -0.015036405273438    -0.006723000000000
    -0.006723000000000    -0.006723000000000    -0.015036405273438
1 23
    -0.015829405273438     0.000000000000000     0.000000000000000
     0.000000000000000    -0.009731905273438    -0.007771000000000
     0.000000000000000    -0.007771000000000    -0.009731905273438
1 24
    -0.015036405273437     0.006723000000000     0.006723000000000
     0.006723000000000    -0.015036405273438    -0.006723000000000
     0.006723000000000    -0.006723000000000    -0.015036405273438
1 25
    -0.001543405273437     0.000000000000000     0.000000000000000
     0.000000000000000    -0.016493405273438     0.000000000000000
     0.000000000000000     0.000000000000000    -0.021042405273438
1 26
    -0.009731905273437     0.000000000000000    -0.007771000000000
     0.000000000000000    -0.015829405273438     0.000000000000000
    -0.007771000000000     0.000000000000000    -0.009731905273438
1 27
    -0.013210405273437     0.000000000000000     0.000000000000000
     0.000000000000000    -0.013210405273438     0.000000000000000
     0.000000000000000     0.000000000000000    -0.008311905273438
1 28
    -0.009731905273437     0.000000000000000     0.007771000000000
     0.000000000000000    -0.015829405273438     0.000000000000000
     0.007771000000000     0.000000000000000    -0.009731905273438
1 29
    -0.002572405273437     0.000000000000000     0.000000000000000
     0.000000000000000    -0.026374905273438     0.033481000000000
     0.000000000000000     0.033481000000000    -0.026374905273438
1 30
    -0.015036405273437     0.006723000000000    -0.006723000000000
     0.006723000000000    -0.015036405273438     0.006723000000000
    -0.006723000000000     0.006723000000000    -0.015036405273438
1 31
    -0.015829405273438     0.000000000000000     0.000000000000000
     0.000000000000000    -0.009731905273438     0.007771000000000
     0.000000000000000     0.007771000000000    -0.009731905273438
1 32
    -0.015036405273437    -0.006723000000000     0.006723000000000
    -0.006723000000000    -0.015036405273438     0.006723000000000
     0.006723000000000     0.006723000000000    -0.015036405273438
1 33
    -0.000045405273437     0.000000000000000     0.000000000000000
     0.000000000000000    -0.000045405273438     0.000000000000000
     0.000000000000000     0.000000000000000    -0.359713405273438
1 34
    -0.021042405273437     0.000000000000000     0.000000000000000
     0.000000000000000    -0.001543405273438     0.000000000000000
     0.000000000000000     0.000000000000000    -0.016493405273438
1 35
    -0.013621405273437     0.000000000000000     0.000000000000000
     0.000000000000000    -0.002333405273438     0.000000000000000
     0.000000000000000     0.000000000000000    -0.013621405273438
1 36
    -0.021042405273437     0.000000000000000     0.000000000000000
     0.000000000000000    -0.001543405273438     0.000000000000000
     0.000000000000000     0.000000000000000    -0.016493405273438
1 37
    -0.001543405273437     0.000000000000000     0.000000000000000
     0.000000000000000    -0.021042405273438     0.000000000000000
     0.000000000000000     0.000000000000000    -0.016493405273438
1 38
    -0.009731905273437    -0.007771000000000     0.000000000000000
    -0.007771000000000    -0.009731905273438     0.000000000000000
     0.000000000000000     0.000000000000000    -0.015829405273438
1 39
    -0.013210405273437     0.000000000000000     0.000000000000000
     0.000000000000000    -0.008311905273438     0.000000000000000
     0.000000000000000     0.000000000000000    -0.013210405273438
1 40
    -0.009731905273437     0.007771000000000     0.000000000000000
     0.007771000000000    -0.009731905273438     0.000000000000000
     0.000000000000000     0.000000000000000    -0.015829405273438
1 41
    -0.002333405273437     0.000000000000000     0.000000000000000
     0.000000000000000    -0.013621405273438     0.000000000000000
     0.000000000000000     0.000000000000000    -0.013621405273438
1 42
    -0.008311905273437     0.000000000000000     0.000000000000000
     0.000000000000000    -0.013210405273438     0.000000000000000
     0.000000000000000     0.000000000000000    -0.013210405273438
1 43
    -0.014243405273438     0.000000000000000     0.000000000000000
     0.000000000000000    -0.014243405273438     0.000000000000000
     0.000000000000000     0.000000000000000    -0.014243405273438
1 44
    -0.008311905273437     0.000000000000000     0.000000000000000
     0.000000000000000    -0.013210405273438     0.000000000000000
     0.000000000000000     0.000000000000000    -0.013210405273438
1 45
    -0.001543405273437     0.000000000000000     0.000000000000000
     0.000000000000000    -0.021042405273438     0.000000000000000
     0.000000000000000     0.000000000000000    -0.016493405273438
1 46
    -0.009731905273437     0.007771000000000     0.000000000000000
     0.007771000000000    -0.009731905273438     0.000000000000000
     0.000000000000000     0.000000000000000    -0.015829405273438
1 47
    -0.013210405273437     0.000000000000000     0.000000000000000
     0.000000000000000    -0.008311905273438     0.000000000000000
     0.000000000000000     0.000000000000000    -0.013210405273438
1 48
    -0.009731905273437    -0.007771000000000     0.000000000000000
    -0.007771000000000    -0.009731905273438     0.000000000000000
     0.000000000000000     0.000000000000000    -0.015829405273438
1 49
    -0.109227405273438     0.000000000000000     0.000000000000000
     0.000000000000000    -0.109227405273438     0.000000000000000
     0.000000000000000     0.000000000000000    -0.916514405273437
1 50
    -0.026374905273438     0.000000000000000     0.033481000000000
     0.000000000000000    -0.002572405273438     0.000000000000000
     0.033481000000000     0.000000000000000    -0.026374905273438
1 51
    -0.016493405273438     0.000000000000000     0.000000000000000
     0.000000000000000    -0.001543405273438     0.000000000000000
     0.000000000000000     0.000000000000000    -0.021042405273438
1 52
    -0.026374905273438     0.000000000000000    -0.033481000000000
     0.000000000000000    -0.002572405273438     0.000000000000000
    -0.033481000000000     0.000000000000000    -0.026374905273438
1 53
    -0.002572405273437     0.000000000000000     0.000000000000000
     0.000000000000000    -0.026374905273438     0.033481000000000
     0.000000000000000     0.033481000000000    -0.026374905273438
1 54
    -0.015036405273437    -0.006723000000000     0.006723000000000
    -0.006723000000000    -0.015036405273438     0.006723000000000
     0.006723000000000     0.006723000000000    -0.015036405273438
1 55
    -0.015829405273438     0.000000000000000     0.000000000000000
     0.000000000000000    -0.009731905273438     0.007771000000000
     0.000000000000000     0.007771000000000    -0.009731905273438
1 56
    -0.015036405273437     0.006723000000000    -0.006723000000000
     0.006723000000000    -0.015036405273438     0.006723000000000
    -0.006723000000000     0.006723000000000    -0.015036405273438
1 57
    -0.001543405273437     0.000000000000000     0.000000000000000
     0.000000000000000    -0.016493405273438     0.000000000000000
     0.000000000000000     0.000000000000000    -0.021042405273438
1 58
    -0.009731905273437     0.000000000000000     0.007771000000000
     0.000000000000000    -0.015829405273438     0.000000000000000
     0.007771000000000     0.000000000000000    -0.009731905273438
1 59
    -0.013210405273437     0.000000000000000     0.000000000000000
     0.000000000000000    -0.013210405273438     0.000000000000000
     0.000000000000000     0.000000000000000    -0.008311905273438
1 60
    -0.009731905273437     0.000000000000000    -0.007771000000000
     0.000000000000000    -0.015829405273438     0.000000000000000
    -0.007771000000000     0.000000000000000    -0.009731905273438
1 61
    -0.002572405273437     0.000000000000000     0.000000000000000
     0.000000000000000    -0.026374905273438    -0.033481000000000
     0.000000000000000    -0.033481000000000    -0.026374905273438
1 62
    -0.015036405273437     0.006723000000000     0.006723000000000
     0.006723000000000    -0.015036405273438    -0.006723000000000
     0.006723000000000    -0.006723000000000    -0.015036405273438
1 63
    -0.015829405273438     0.000000000000000     0.000000000000000
     0.000000000000000    -0.009731905273438    -0.007771000000000
     0.000000000000000    -0.007771000000000    -0.009731905273438
1 64
    -0.015036405273437    -0.006723000000000    -0.006723000000000
    -0.006723000000000    -0.015036405273438    -0.006723000000000
    -0.006723000000000    -0.006723000000000    -0.015036405273438
1 65
     0.027142594726563     0.000000000000000     0.000000000000000
     0.000000000000000     0.015113094726562    -0.423692500000000
     0.000000000000000    -0.423692500000000     0.015113094726562
1 66
    -0.022213405273438    -0.018881750000000    -0.018881750000000
    -0.018881750000000    -0.002971905273438    -0.018172500000000
    -0.018881750000000    -0.018172500000000    -0.002971905273438
1 67
    -0.025413405273438     0.000000000000000     0.000000000000000
     0.000000000000000     0.001077594726562    -0.016438000000000
     0.000000000000000    -0.016438000000000     0.001077594726562
1 68
    -0.022213405273438     0.018881750000000     0.018881750000000
     0.018881750000000    -0.002971905273438    -0.018172500000000
     0.018881750000000    -0.018172500000000    -0.002971905273438
1 69
     0.011906594726563     0.000000000000000     0.000000000000000
     0.000000000000000    -0.085468905273438    -0.043421000000000
     0.000000000000000    -0.043421000000000     0.016286594726562
1 70
     0.002692594726563    -0.001920500000000    -0.002077500000000
    -0.001920500000000    -0.012108905273438    -0.003835500000000
    -0.002077500000000    -0.003835500000000     0.003988594726562
1 71
    -0.003849405273437     0.000000000000000     0.000000000000000
     0.000000000000000    -0.009479405273438    -0.003145750000000
     0.000000000000000    -0.003145750000000     0.002641094726562
1 72
     0.002692594726563     0.001920500000000     0.002077500000000
     0.001920500000000    -0.012108905273438    -0.003835500000000
     0.002077500000000    -0.003835500000000     0.003988594726562
1 73
     0.011906594726563     0.000000000000000     0.000000000000000
     0.000000000000000    -0.085468905273438     0.043421000000000
     0.000000000000000     0.043421000000000     0.016286594726562
1 74
     0.002692594726563     0.001920500000000    -0.002077500000000
     0.001920500000000    -0.012108905273438     0.003835500000000
    -0.002077500000000     0.003835500000000     0.003988594726562
1 75
    -0.003849405273437     0.000000000000000     0.000000000000000
     0.000000000000000    -0.009479405273438     0.003145750000000
     0.000000000000000     0.003145750000000     0.002641094726562
1 76
     0.002692594726563    -0.001920500000000     0.002077500000000
    -0.001920500000000    -0.012108905273438     0.003835500000000
     0.002077500000000     0.003835500000000     0.003988594726562
1 77
     0.027142594726563     0.000000000000000     0.000000000000000
     0.000000000000000     0.015113094726562     0.423692500000000
     0.000000000000000     0.423692500000000     0.015113094726562
1 78
    -0.022213405273438     0.018881750000000    -0.018881750000000
     0.018881750000000    -0.002971905273438     0.018172500000000
    -0.018881750000000     0.018172500000000    -0.002971905273438
1 79
    -0.025413405273438     0.000000000000000     0.000000000000000
     0.000000000000000     0.001077594726562     0.016438000000000
     0.000000000000000     0.016438000000000     0.001077594726562
1 80
    -0.022213405273438    -0.018881750000000     0.018881750000000
    -0.018881750000000    -0.002971905273438     0.018172500000000
     0.018881750000000     0.018172500000000    -0.002971905273438
1 81
     0.011906594726563     0.000000000000000     0.000000000000000
     0.000000000000000     0.016286594726562    -0.043421000000000
     0.000000000000000    -0.043421000000000    -0.085468905273438
1 82
     0.002692594726563    -0.002077500000000    -0.001920500000000
    -0.002077500000000     0.003988594726562    -0.003835500000000
    -0.001920500000000    -0.003835500000000    -0.012108905273438
1 83
    -0.003849405273437     0.000000000000000     0.000000000000000
     0.000000000000000     0.002641094726562    -0.003145750000000
     0.000000000000000    -0.003145750000000    -0.009479405273438
1 84
     0.002692594726563     0.002077500000000     0.001920500000000
     0.002077500000000     0.003988594726562    -0.003835500000000
     0.001920500000000    -0.003835500000000    -0.012108905273438
1 85
     0.010935594726563     0.000000000000000     0.000000000000000
     0.000000000000000    -0.008499905273438    -0.007107000000000
     0.000000000000000    -0.007107000000000    -0.008499905273438
1 86
     0.002031594726563    -0.001114000000000    -0.001114000000000
    -0.001114000000000    -0.003907905273438    -0.002277000000000
    -0.001114000000000    -0.002277000000000    -0.003907905273438
1 87
    -0.001711405273437     0.000000000000000     0.000000000000000
     0.000000000000000    -0.002560405273438    -0.001811500000000
     0.000000000000000    -0.001811500000000    -0.002560405273438
1 88
     0.002031594726563     0.001114000000000     0.001114000000000
     0.001114000000000    -0.003907905273438    -0.002277000000000
     0.001114000000000    -0.002277000000000    -0.003907905273438
1 89
     0.010935594726563     0.000000000000000     0.000000000000000
     0.000000000000000    -0.008499905273438     0.007107000000000
     0.000000000000000     0.007107000000000    -0.008499905273438
1 90
     0.002031594726563     0.001114000000000    -0.001114000000000
     0.001114000000000    -0.003907905273438     0.002277000000000
    -0.001114000000000     0.002277000000000    -0.003907905273438
1 91
    -0.001711405273437     0.000000000000000     0.000000000000000
     0.000000000000000    -0.002560405273438     0.001811500000000
     0.000000000000000     0.001811500000000    -0.002560405273438
1 92
     0.002031594726563    -0.001114000000000     0.001114000000000
    -0.001114000000000    -0.003907905273438     0.002277000000000
     0.001114000000000     0.002277000000000    -0.003907905273438
1 93
     0.011906594726563     0.000000000000000     0.000000000000000
     0.000000000000000     0.016286594726562     0.043421000000000
     0.000000000000000     0.043421000000000    -0.085468905273438
1 94
     0.002692594726563     0.002077500000000    -0.001920500000000
     0.002077500000000     0.003988594726562     0.003835500000000
    -0.001920500000000     0.003835500000000    -0.012108905273438
1 95
    -0.003849405273437     0.000000000000000     0.000000000000000
     0.000000000000000     0.002641094726562     0.003145750000000
     0.000000000000000     0.003145750000000    -0.009479405273438
1 96
     0.002692594726563    -0.002077500000000     0.001920500000000
    -0.002077500000000     0.003988594726562     0.003835500000000
     0.001920500000000     0.003835500000000    -0.012108905273438
1 97
     0.011906594726563     0.000000000000000     0.000000000000000
     0.000000000000000     0.016286594726562     0.043421000000000
     0.000000000000000     0.043421000000000    -0.085468905273438
1 98
     0.002692594726563    -0.002077500000000     0.001920500000000
    -0.002077500000000     0.003988594726562     0.003835500000000
     0.001920500000000     0.003835500000000    -0.012108905273438
1 99
    -0.003849405273437     0.000000000000000     0.000000000000000
     0.000000000000000     0.002641094726562     0.003145750000000
     0.000000000000000     0.003145750000000    -0.009479405273438
1 100
     0.002692594726563     0.002077500000000    -0.001920500000000
     0.002077500000000     0.003988594726562     0.003835500000000
    -0.001920500000000     0.003835500000000    -0.012108905273438
1 101
     0.010935594726563     0.000000000000000     0.000000000000000
     0.000000000000000    -0.008499905273438     0.007107000000000
     0.000000000000000     0.007107000000000    -0.008499905273438
1 102
     0.002031594726563    -0.001114000000000     0.001114000000000
    -0.001114000000000    -0.003907905273438     0.002277000000000
     0.001114000000000     0.002277000000000    -0.003907905273438
1 103
    -0.001711405273437     0.000000000000000     0.000000000000000
     0.000000000000000    -0.002560405273438     0.001811500000000
     0.000000000000000     0.001811500000000    -0.002560405273438
1 104
     0.002031594726563     0.001114000000000    -0.001114000000000
     0.001114000000000    -0.003907905273438     0.002277000000000
    -0.001114000000000     0.002277000000000    -0.003907905273438
1 105
     0.010935594726563     0.000000000000000     0.000000000000000
     0.000000000000000    -0.008499905273438    -0.007107000000000
     0.000000000000000    -0.007107000000000    -0.008499905273438
1 106
     0.002031594726563     0.001114000000000     0.001114000000000
     0.001114000000000    -0.003907905273438    -0.002277000000000
     0.001114000000000    -0.002277000000000    -0.003907905273438
1 107
    -0.001711405273437     0.000000000000000     0.000000000000000
     0.000000000000000    -0.002560405273438    -0.001811500000000
     0.000000000000000    -0.001811500000000    -0.002560405273438
1 108
     0.002031594726563    -0.001114000000000    -0.001114000000000
    -0.001114000000000    -0.003907905273438    -0.002277000000000
    -0.001114000000000    -0.002277000000000    -0.003907905273438
1 109
     0.011906594726563     0.000000000000000     0.000000000000000
     0.000000000000000     0.016286594726562    -0.043421000000000
     0.000000000000000    -0.043421000000000    -0.085468905273438
1 110
     0.002692594726563     0.002077500000000     0.001920500000000
     0.002077500000000     0.003988594726562    -0.003835500000000
     0.001920500000000    -0.003835500000000    -0.012108905273438
1 111
    -0.003849405273437     0.000000000000000     0.000000000000000
     0.000000000000000     0.002641094726562    -0.003145750000000
     0.000000000000000    -0.003145750000000    -0.009479405273438
1 112
     0.002692594726563    -0.002077500000000    -0.001920500000000
    -0.002077500000000     0.003988594726562    -0.003835500000000
    -0.001920500000000    -0.003835500000000    -0.012108905273438
1 113
     0.027142594726563     0.000000000000000     0.000000000000000
     0.000000000000000     0.015113094726562     0.423692500000000
     0.000000000000000     0.423692500000000     0.015113094726562
1 114
    -0.022213405273438    -0.018881750000000     0.018881750000000
    -0.018881750000000    -0.002971905273438     0.018172500000000
     0.018881750000000     0.018172500000000    -0.002971905273438
1 115
    -0.025413405273438     0.000000000000000     0.000000000000000
     0.000000000000000     0.001077594726562     0.016438000000000
     0.000000000000000     0.016438000000000     0.001077594726562
1 116
    -0.022213405273438     0.018881750000000    -0.018881750000000
     0.018881750000000    -0.002971905273438     0.018172500000000
    -0.018881750000000     0.018172500000000    -0.002971905273438
1 117
     0.011906594726563     0.000000000000000     0.000000000000000
     0.000000000000000    -0.085468905273438     0.043421000000000
     0.000000000000000     0.043421000000000     0.016286594726562
1 118
     0.002692594726563    -0.001920500000000     0.002077500000000
    -0.001920500000000    -0.012108905273438     0.003835500000000
     0.002077500000000     0.003835500000000     0.003988594726562
1 119
    -0.003849405273437     0.000000000000000     0.000000000000000
     0.000000000000000    -0.009479405273438     0.003145750000000
     0.000000000000000     0.003145750000000     0.002641094726562
1 120
     0.002692594726563     0.001920500000000    -0.002077500000000
     0.001920500000000    -0.012108905273438     0.003835500000000
    -0.002077500000000     0.003835500000000     0.003988594726562
1 121
     0.011906594726563     0.000000000000000     0.000000000000000
     0.000000000000000    -0.085468905273438    -0.043421000000000
     0.000000000000000    -0.043421000000000     0.016286594726562
1 122
     0.002692594726563     0.001920500000000     0.002077500000000
     0.001920500000000    -0.012108905273438    -0.003835500000000
     0.002077500000000    -0.003835500000000     0.003988594726562
1 123
    -0.003849405273437     0.000000000000000     0.000000000000000
     0.000000000000000    -0.009479405273438    -0.003145750000000
     0.000000000000000    -0.003145750000000     0.002641094726562
1 124
     0.002692594726563    -0.001920500000000    -0.002077500000000
    -0.001920500000000    -0.012108905273438    -0.003835500000000
    -0.002077500000000    -0.003835500000000     0.003988594726562
1 125
     0.027142594726563     0.000000000000000     0.000000000000000
     0.000000000000000     0.015113094726562    -0.423692500000000
     0.000000000000000    -0.423692500000000     0.015113094726562
1 126
    -0.022213405273438     0.018881750000000     0.018881750000000
     0.018881750000000    -0.002971905273438    -0.018172500000000
     0.018881750000000    -0.018172500000000    -0.002971905273438
1 127
    -0.025413405273438     0.000000000000000     0.000000000000000
     0.000000000000000     0.001077594726562    -0.016438000000000
     0.000000000000000    -0.016438000000000     0.001077594726562
1 128
    -0.022213405273438    -0.018881750000000    -0.018881750000000
    -0.018881750000000    -0.002971905273438    -0.018172500000000
    -0.018881750000000    -0.018172500000000    -0.002971905273438
1 129
     0.015113094726562     0.000000000000000    -0.423692500000000
     0.000000000000000     0.027142594726563     0.000000000000000
    -0.423692500000000     0.000000000000000     0.015113094726562
1 130
    -0.085468905273438     0.000000000000000    -0.043421000000000
     0.000000000000000     0.011906594726563     0.000000000000000
    -0.043421000000000     0.000000000000000     0.016286594726562
1 131
    -0.085468905273438     0.000000000000000     0.043421000000000
     0.000000000000000     0.011906594726563     0.000000000000000
     0.043421000000000     0.000000000000000     0.016286594726562
1 132
     0.015113094726562     0.000000000000000     0.423692500000000
     0.000000000000000     0.027142594726563     0.000000000000000
     0.423692500000000     0.000000000000000     0.015113094726562
1 133
    -0.002971905273438    -0.018881750000000    -0.018172500000000
    -0.018881750000000    -0.022213405273438    -0.018881750000000
    -0.018172500000000    -0.018881750000000    -0.002971905273438
1 134
    -0.012108905273438    -0.001920500000000    -0.003835500000000
    -0.001920500000000     0.002692594726563    -0.002077500000000
    -0.003835500000000    -0.002077500000000     0.003988594726562
1 135
    -0.012108905273438     0.001920500000000     0.003835500000000
     0.001920500000000     0.002692594726563    -0.002077500000000
     0.003835500000000    -0.002077500000000     0.003988594726562
1 136
    -0.002971905273438     0.018881750000000     0.018172500000000
     0.018881750000000    -0.022213405273438    -0.018881750000000
     0.018172500000000    -0.018881750000000    -0.002971905273438
1 137
     0.001077594726563     0.000000000000000    -0.016438000000000
     0.000000000000000    -0.025413405273437     0.000000000000000
    -0.016438000000000     0.000000000000000     0.001077594726562
1 138
    -0.009479405273438     0.000000000000000    -0.003145750000000
     0.000000000000000    -0.003849405273437     0.000000000000000
    -0.003145750000000     0.000000000000000     0.002641094726562
1 139
    -0.009479405273438     0.000000000000000     0.003145750000000
     0.000000000000000    -0.003849405273437     0.000000000000000
     0.003145750000000     0.000000000000000     0.002641094726562
1 140
     0.001077594726563     0.000000000000000     0.016438000000000
     0.000000000000000    -0.025413405273437     0.000000000000000
     0.016438000000000     0.000000000000000     0.001077594726562
1 141
    -0.002971905273438     0.018881750000000    -0.018172500000000
     0.018881750000000    -0.022213405273438     0.018881750000000
    -0.018172500000000     0.018881750000000    -0.002971905273438
1 142
    -0.012108905273438     0.001920500000000    -0.003835500000000
     0.001920500000000     0.002692594726563     0.002077500000000
    -0.003835500000000     0.002077500000000     0.003988594726562
1 143
    -0.012108905273438    -0.001920500000000     0.003835500000000
    -0.001920500000000     0.002692594726563     0.002077500000000
     0.003835500000000     0.002077500000000     0.003988594726562
1 144
    -0.002971905273438    -0.018881750000000     0.018172500000000
    -0.018881750000000    -0.022213405273438     0.018881750000000
     0.018172500000000     0.018881750000000    -0.002971905273438
1 145
     0.016286594726562     0.000000000000000    -0.043421000000000
     0.000000000000000     0.011906594726563     0.000000000000000
    -0.043421000000000     0.000000000000000    -0.085468905273438
1 146
    -0.008499905273438     0.000000000000000    -0.007107000000000