ESCALE ; pCOHP file generated by LOBSTER. Energy is shifted such that the Fermi level lies at 0 eV.
        25          1        601  -1.35683e+01   1.64818e+01   6.46510e+00 
Average
No.1:Ge1->Te6(2.9510870425864368)
No.2:Ge1->Te6(2.9510870425864368)
No.3:Ge1->Te7(2.9510870425864368)
No.4:Ge1->Te7(2.9510870425864368)
No.5:Ge1->Te8(2.9510870425864368)
No.6:Ge1->Te8(2.9510870425864368)
No.7:Ge2->Te5(2.9510870425864368)
No.8:Ge2->Te5(2.9510870425864368)
No.9:Ge2->Te7(2.9510870425864368)
No.10:Ge2->Te7(2.9510870425864368)
No.11:Ge2->Te8(2.9510870425864368)
No.12:Ge2->Te8(2.9510870425864368)
No.13:Ge3->Te5(2.9510870425864368)
No.14:Ge3->Te5(2.9510870425864368)
No.15:Ge3->Te6(2.9510870425864368)
No.16:Ge3->Te6(2.9510870425864368)
No.17:Ge3->Te8(2.9510870425864368)
No.18:Ge3->Te8(2.9510870425864368)
No.19:Ge4->Te5(2.9510870425864368)
No.20:Ge4->Te5(2.9510870425864368)
No.21:Ge4->Te6(2.9510870425864368)
No.22:Ge4->Te6(2.9510870425864368)
No.23:Ge4->Te7(2.9510870425864368)
No.24:Ge4->Te7(2.9510870425864368)
-20.03339   0.00000  -0.01801   0.00000  -0.01801   0.00000  -0.01802   0.00000  -0.01814   0.00000  -0.01795   0.00000  -0.01798   0.00000  -0.01808   0.00000  -0.01798   0.00000  -0.01795   0.00000  -0.01803   0.00000  -0.01796   0.00000  -0.01795   0.00000  -0.01802   0.00000  -0.01806   0.00000  -0.01805   0.00000  -0.01802   0.00000  -0.01806   0.00000  -0.01806   0.00000  -0.01806   0.00000  -0.01801   0.00000  -0.01795   0.00000  -0.01788   0.00000  -0.01801   0.00000  -0.01794   0.00000  -0.01799
-19.98331   0.00000  -0.01801   0.00000  -0.01801   0.00000  -0.01802   0.00000  -0.01814   0.00000  -0.01795   0.00000  -0.01798   0.00000  -0.01808   0.00000  -0.01798   0.00000  -0.01795   0.00000  -0.01803   0.00000  -0.01796   0.00000  -0.01795   0.00000  -0.01802   0.00000  -0.01806   0.00000  -0.01805   0.00000  -0.01802   0.00000  -0.01806   0.00000  -0.01806   0.00000  -0.01806   0.00000  -0.01801   0.00000  -0.01795   0.00000  -0.01788   0.00000  -0.01801   0.00000  -0.01794   0.00000  -0.01799
-19.93322   0.00000  -0.01801   0.00000  -0.01801   0.00000  -0.01802   0.00000  -0.01814   0.00000  -0.01795   0.00000  -0.01798   0.00000  -0.01808   0.00000  -0.01798   0.00000  -0.01795   0.00000  -0.01803   0.00000  -0.01796   0.00000  -0.01795   0.00000  -0.01802   0.00000  -0.01806   0.00000  -0.01805   0.00000  -0.01802   0.00000  -0.01806   0.00000  -0.01806   0.00000  -0.01806   0.00000  -0.01801   0.00000  -0.01795   0.00000  -0.01788   0.00000  -0.01801   0.00000  -0.01794   0.00000  -0.01799
-19.88314   0.00000  -0.01801   0.00000  -0.01801   0.00000  -0.01802   0.00000  -0.01814   0.00000  -0.01795   0.00000  -0.01798   0.00000  -0.01808   0.00000  -0.01798   0.00000  -0.01795   0.00000  -0.01803   0.00000  -0.01796   0.00000  -0.01795   0.00000  -0.01802   0.00000  -0.01806   0.00000  -0.01805   0.00000  -0.01802   0.00000  -0.01806   0.00000  -0.01806   0.00000  -0.01806   0.00000  -0.01801   0.00000  -0.01795   0.00000  -0.01788   0.00000  -0.01801   0.00000  -0.01794   0.00000  -0.01799
-19.83306   0.00000  -0.01801   0.00000  -0.01801   0.00000  -0.01802   0.00000  -0.01814   0.00000  -0.01795   0.00000  -0.01798   0.00000  -0.01808   0.00000  -0.01798   0.00000  -0.01795   0.00000  -0.01803   0.00000  -0.01796   0.00000  -0.01795   0.00000  -0.01802   0.00000  -0.01806   0.00000  -0.01805   0.00000  -0.01802   0.00000  -0.01806   0.00000  -0.01806   0.00000  -0.01806   0.00000  -0.01801   0.00000  -0.01795   0.00000  -0.01788   0.00000  -0.01801   0.00000  -0.01794   0.00000  -0.01799
-19.78297   0.00000  -0.01801   0.00000  -0.01801   0.00000  -0.01802   0.00000  -0.01814   0.00000  -0.01795   0.00000  -0.01798   0.00000  -0.01808   0.00000  -0.01798   0.00000  -0.01795   0.00000  -0.01803   0.00000  -0.01796   0.00000  -0.01795   0.00000  -0.01802   0.00000  -0.01806   0.00000  -0.01805   0.00000  -0.01802   0.00000  -0.01806   0.00000  -0.01806   0.00000  -0.01806   0.00000  -0.01801   0.00000  -0.01795   0.00000  -0.01788   0.00000  -0.01801   0.00000  -0.01794   0.00000  -0.01799
-19.73289   0.00000  -0.01801   0.00000  -0.01801   0.00000  -0.01802   0.00000  -0.01814   0.00000  -0.01795   0.00000  -0.01798   0.00000  -0.01808   0.00000  -0.01798   0.00000  -0.01795   0.00000  -0.01803   0.00000  -0.01796   0.00000  -0.01795   0.00000  -0.01802   0.00000  -0.01806   0.00000  -0.01805   0.00000  -0.01802   0.00000  -0.01806   0.00000  -0.01806   0.00000  -0.01806   0.00000  -0.01801   0.00000  -0.01795   0.00000  -0.01788   0.00000  -0.01801   0.00000  -0.01794   0.00000  -0.01799
-19.68280   0.00000  -0.01801   0.00000  -0.01801   0.00000  -0.01802   0.00000  -0.01814   0.00000  -0.01795   0.00000  -0.01798   0.00000  -0.01808   0.00000  -0.01798   0.00000  -0.01795   0.00000  -0.01803   0.00000  -0.01796   0.00000  -0.01795   0.00000  -0.01802   0.00000  -0.01806   0.00000  -0.01805   0.00000  -0.01802   0.00000  -0.01806   0.00000  -0.01806   0.00000  -0.01806   0.00000  -0.01801   0.00000  -0.01795   0.00000  -0.01788   0.00000  -0.01801   0.00000  -0.01794   0.00000  -0.01799
-19.63272   0.00000  -0.01801   0.00000  -0.01801   0.00000  -0.01802   0.00000  -0.01814   0.00000  -0.01795   0.00000  -0.01798   0.00000  -0.01808   0.00000  -0.01798   0.00000  -0.01795   0.00000  -0.01803   0.00000  -0.01796   0.00000  -0.01795   0.00000  -0.01802   0.00000  -0.01806   0.00000  -0.01805   0.00000  -0.01802   0.00000  -0.01806   0.00000  -0.01806   0.00000  -0.01806   0.00000  -0.01801   0.00000  -0.01795   0.00000  -0.01788   0.00000  -0.01801   0.00000  -0.01794   0.00000  -0.01799
-19.58264   0.00000  -0.01801   0.00000  -0.01801   0.00000  -0.01802   0.00000  -0.01814   0.00000  -0.01795   0.00000  -0.01798   0.00000  -0.01808   0.00000  -0.01798   0.00000  -0.01795   0.00000  -0.01803   0.00000  -0.01796   0.00000  -0.01795   0.00000  -0.01802   0.00000  -0.01806   0.00000  -0.01805   0.00000  -0.01802   0.00000  -0.01806   0.00000  -0.01806   0.00000  -0.01806   0.00000  -0.01801   0.00000  -0.01795   0.00000  -0.01788   0.00000  -0.01801   0.00000  -0.01794   0.00000  -0.01799
-19.53255   0.00000  -0.01801   0.00000  -0.01801   0.00000  -0.01802   0.00000  -0.01814   0.00000  -0.01795   0.00000  -0.01798   0.00000  -0.01808   0.00000  -0.01798   0.00000  -0.01795   0.00000  -0.01803   0.00000  -0.01796   0.00000  -0.01795   0.00000  -0.01802   0.00000  -0.01806   0.00000  -0.01805   0.00000  -0.01802   0.00000  -0.01806   0.00000  -0.01806   0.00000  -0.01806   0.00000  -0.01801   0.00000  -0.01795   0.00000  -0.01788   0.00000  -0.01801   0.00000  -0.01794   0.00000  -0.01799
-19.48247   0.00000  -0.01801   0.00000  -0.01801   0.00000  -0.01802   0.00000  -0.01814   0.00000  -0.01795   0.00000  -0.01798   0.00000  -0.01808   0.00000  -0.01798   0.00000  -0.01795   0.00000  -0.01803   0.00000  -0.01796   0.00000  -0.01795   0.00000  -0.01802   0.00000  -0.01806   0.00000  -0.01805   0.00000  -0.01802   0.00000  -0.01806   0.00000  -0.01806   0.00000  -0.01806   0.00000  -0.01801   0.00000  -0.01795   0.00000  -0.01788   0.00000  -0.01801   0.00000  -0.01794   0.00000  -0.01799
-19.43239   0.00000  -0.01801   0.00000  -0.01801   0.00000  -0.01802   0.00000  -0.01814   0.00000  -0.01795   0.00000  -0.01798   0.00000  -0.01808   0.00000  -0.01798   0.00000  -0.01795   0.00000  -0.01803   0.00000  -0.01796   0.00000  -0.01795   0.00000  -0.01802   0.00000  -0.01806   0.00000  -0.01805   0.00000  -0.01802   0.00000  -0.01806   0.00000  -0.01806   0.00000  -0.01806   0.00000  -0.01801   0.00000  -0.01795   0.00000  -0.01788   0.00000  -0.01801   0.00000  -0.01794   0.00000  -0.01799
-19.38230   0.00000  -0.01801   0.00000  -0.01801   0.00000  -0.01802   0.00000  -0.01814   0.00000  -0.01795   0.00000  -0.01798   0.00000  -0.01808   0.00000  -0.01798   0.00000  -0.01795   0.00000  -0.01803   0.00000  -0.01796   0.00000  -0.01795   0.00000  -0.01802   0.00000  -0.01806   0.00000  -0.01805   0.00000  -0.01802   0.00000  -0.01806   0.00000  -0.01806   0.00000  -0.01806   0.00000  -0.01801   0.00000  -0.01795   0.00000  -0.01788   0.00000  -0.01801   0.00000  -0.01794   0.00000  -0.01799
-19.33222   0.00000  -0.01801   0.00000  -0.01801   0.00000  -0.01802   0.00000  -0.01814   0.00000  -0.01795   0.00000  -0.01798   0.00000  -0.01808   0.00000  -0.01798   0.00000  -0.01795   0.00000  -0.01803   0.00000  -0.01796   0.00000  -0.01795   0.00000  -0.01802   0.00000  -0.01806   0.00000  -0.01805   0.00000  -0.01802   0.00000  -0.01806   0.00000  -0.01806   0.00000  -0.01806   0.00000  -0.01801   0.00000  -0.01795   0.00000  -0.01788   0.00000  -0.01801   0.00000  -0.01794   0.00000  -0.01799
-19.28214   0.00000  -0.01801   0.00000  -0.01801   0.00000  -0.01802   0.00000  -0.01814   0.00000  -0.01795   0.00000  -0.01798   0.00000  -0.01808   0.00000  -0.01798   0.00000  -0.01795   0.00000  -0.01803   0.00000  -0.01796   0.00000  -0.01795   0.00000  -0.01802   0.00000  -0.01806   0.00000  -0.01805   0.00000  -0.01802   0.00000  -0.01806   0.00000  -0.01806   0.00000  -0.01806   0.00000  -0.01801   0.00000  -0.01795   0.00000  -0.01788   0.00000  -0.01801   0.00000  -0.01794   0.00000  -0.01799
-19.23205   0.00000  -0.01801   0.00000  -0.01801   0.00000  -0.01802   0.00000  -0.01814   0.00000  -0.01795   0.00000  -0.01798   0.00000  -0.01808   0.00000  -0.01798   0.00000  -0.01795   0.00000  -0.01803   0.00000  -0.01796   0.00000  -0.01795   0.00000  -0.01802   0.00000  -0.01806   0.00000  -0.01805   0.00000  -0.01802   0.00000  -0.01806   0.00000  -0.01806   0.00000  -0.01806   0.00000  -0.01801   0.00000  -0.01795   0.00000  -0.01788   0.00000  -0.01801   0.00000  -0.01794   0.00000  -0.01799
-19.18197   0.00000  -0.01801   0.00000  -0.01801   0.00000  -0.01802   0.00000  -0.01814   0.00000  -0.01795   0.00000  -0.01798   0.00000  -0.01808   0.00000  -0.01798   0.00000  -0.01795   0.00000  -0.01803   0.00000  -0.01796   0.00000  -0.01795   0.00000  -0.01802   0.00000  -0.01806   0.00000  -0.01805   0.00000  -0.01802   0.00000  -0.01806   0.00000  -0.01806   0.00000  -0.01806   0.00000  -0.01801   0.00000  -0.01795   0.00000  -0.01788   0.00000  -0.01801   0.00000  -0.01794   0.00000  -0.01799
-19.13189   0.00000  -0.01801   0.00000  -0.01801   0.00000  -0.01802   0.00000  -0.01814   0.00000  -0.01795   0.00000  -0.01798   0.00000  -0.01808   0.00000  -0.01798   0.00000  -0.01795   0.00000  -0.01803   0.00000  -0.01796   0.00000  -0.01795   0.00000  -0.01802   0.00000  -0.01806   0.00000  -0.01805   0.00000  -0.01802   0.00000  -0.01806   0.00000  -0.01806   0.00000  -0.01806   0.00000  -0.01801   0.00000  -0.01795   0.00000  -0.01788   0.00000  -0.01801   0.00000  -0.01794   0.00000  -0.01799
-19.08180   0.00000  -0.01801   0.00000  -0.01801   0.00000  -0.01802   0.00000  -0.01814   0.00000  -0.01795   0.00000  -0.01798   0.00000  -0.01808   0.00000  -0.01798   0.00000  -0.01795   0.00000  -0.01803   0.00000  -0.01796   0.00000  -0.01795   0.00000  -0.01802   0.00000  -0.01806   0.00000  -0.01805   0.00000  -0.01802   0.00000  -0.01806   0.00000  -0.01806   0.00000  -0.01806   0.00000  -0.01801   0.00000  -0.01795   0.00000  -0.01788   0.00000  -0.01801   0.00000  -0.01794   0.00000  -0.01799
-19.03172   0.00000  -0.01801   0.00000  -0.01801   0.00000  -0.01802   0.00000  -0.01814   0.00000  -0.01795   0.00000  -0.01798   0.00000  -0.01808   0.00000  -0.01798   0.00000  -0.01795   0.00000  -0.01803   0.00000  -0.01796   0.00000  -0.01795   0.00000  -0.01802   0.00000  -0.01806   0.00000  -0.01805   0.00000  -0.01802   0.00000  -0.01806   0.00000  -0.01806   0.00000  -0.01806   0.00000  -0.01801   0.00000  -0.01795   0.00000  -0.01788   0.00000  -0.01801   0.00000  -0.01794   0.00000  -0.01799
-18.98164   0.00000  -0.01801   0.00000  -0.01801   0.00000  -0.01802   0.00000  -0.01814   0.00000  -0.01795   0.00000  -0.01798   0.00000  -0.01808   0.00000  -0.01798   0.00000  -0.01795   0.00000  -0.01803   0.00000  -0.01796   0.00000  -0.01795   0.00000  -0.01802   0.00000  -0.01806   0.00000  -0.01805   0.00000  -0.01802   0.00000  -0.01806   0.00000  -0.01806   0.00000  -0.01806   0.00000  -0.01801   0.00000  -0.01795   0.00000  -0.01788   0.00000  -0.01801   0.00000  -0.01794   0.00000  -0.01799
-18.93155   0.00000  -0.01801   0.00000  -0.01801   0.00000  -0.01802   0.00000  -0.01814   0.00000  -0.01795   0.00000  -0.01798   0.00000  -0.01808   0.00000  -0.01798   0.00000  -0.01795   0.00000  -0.01803   0.00000  -0.01796   0.00000  -0.01795   0.00000  -0.01802   0.00000  -0.01806   0.00000  -0.01805   0.00000  -0.01802   0.00000  -0.01806   0.00000  -0.01806   0.00000  -0.01806   0.00000  -0.01801   0.00000  -0.01795   0.00000  -0.01788   0.00000  -0.01801   0.00000  -0.01794   0.00000  -0.01799
-18.88147   0.00000  -0.01801   0.00000  -0.01801   0.00000  -0.01802   0.00000  -0.01814   0.00000  -0.01795   0.00000  -0.01798   0.00000  -0.01808   0.00000  -0.01798   0.00000  -0.01795   0.00000  -0.01803   0.00000  -0.01796   0.00000  -0.01795   0.00000  -0.01802   0.00000  -0.01806   0.00000  -0.01805   0.00000  -0.01802   0.00000  -0.01806   0.00000  -0.01806   0.00000  -0.01806   0.00000  -0.01801   0.00000  -0.01795   0.00000  -0.01788   0.00000  -0.01801   0.00000  -0.01794   0.00000  -0.01799
-18.83139   0.00000  -0.01801   0.00000  -0.01801   0.00000  -0.01802   0.00000  -0.01814   0.00000  -0.01795   0.00000  -0.01798   0.00000  -0.01808   0.00000  -0.01798   0.00000  -0.01795   0.00000  -0.01803   0.00000  -0.01796   0.00000  -0.01795   0.00000  -0.01802   0.00000  -0.01806   0.00000  -0.01805   0.00000  -0.01802   0.00000  -0.01806   0.00000  -0.01806   0.00000  -0.01806   0.00000  -0.01801   0.00000  -0.01795   0.00000  -0.01788   0.00000  -0.01801   0.00000  -0.01794   0.00000  -0.01799
-18.78130   0.00000  -0.01801   0.00000  -0.01801   0.00000  -0.01802   0.00000  -0.01814   0.00000  -0.01795   0.00000  -0.01798   0.00000  -0.01808   0.00000  -0.01798   0.00000  -0.01795   0.00000  -0.01803   0.00000  -0.01796   0.00000  -0.01795   0.00000  -0.01802   0.00000  -0.01806   0.00000  -0.01805   0.00000  -0.01802   0.00000  -0.01806   0.00000  -0.01806   0.00000  -0.01806   0.00000  -0.01801   0.00000  -0.01795   0.00000  -0.01788   0.00000  -0.01801   0.00000  -0.01794   0.00000  -0.01799
-18.73122   0.00000  -0.01801   0.00000  -0.01801   0.00000  -0.01802   0.00000  -0.01814   0.00000  -0.01795   0.00000  -0.01798   0.00000  -0.01808   0.00000  -0.01798   0.00000  -0.01795   0.00000  -0.01803   0.00000  -0.01796   0.00000  -0.01795   0.00000  -0.01802   0.00000  -0.01806   0.00000  -0.01805   0.00000  -0.01802   0.00000  -0.01806   0.00000  -0.01806   0.00000  -0.01806   0.00000  -0.01801   0.00000  -0.01795   0.00000  -0.01788   0.00000  -0.01801   0.00000  -0.01794   0.00000  -0.01799
-18.68114   0.00000  -0.01801   0.00000  -0.01801   0.00000  -0.01802   0.00000  -0.01814   0.00000  -0.01795   0.00000  -0.01798   0.00000  -0.01808   0.00000  -0.01798   0.00000  -0.01795   0.00000  -0.01803   0.00000  -0.01796   0.00000  -0.01795   0.00000  -0.01802   0.00000  -0.01806   0.00000  -0.01805   0.00000  -0.01802   0.00000  -0.01806   0.00000  -0.01806   0.00000  -0.01806   0.00000  -0.01801   0.00000  -0.01795   0.00000  -0.01788   0.00000  -0.01801   0.00000  -0.01794   0.00000  -0.01799
-18.63105   0.00000  -0.01801   0.00000  -0.01801   0.00000  -0.01802   0.00000  -0.01814   0.00000  -0.01795   0.00000  -0.01798   0.00000  -0.01808   0.00000  -0.01798   0.00000  -0.01795   0.00000  -0.01803   0.00000  -0.01796   0.00000  -0.01795   0.00000  -0.01802   0.00000  -0.01806   0.00000  -0.01805   0.00000  -0.01802   0.00000  -0.01806   0.00000  -0.01806   0.00000  -0.01806   0.00000  -0.01801   0.00000  -0.01795   0.00000  -0.01788   0.00000  -0.01801   0.00000  -0.01794   0.00000  -0.01799
-18.58097   0.00000  -0.01801   0.00000  -0.01801   0.00000  -0.01802   0.00000  -0.01814   0.00000  -0.01795   0.00000  -0.01798   0.00000  -0.01808   0.00000  -0.01798   0.00000  -0.01795   0.00000  -0.01803   0.00000  -0.01796   0.00000  -0.01795   0.00000  -0.01802   0.00000  -0.01806   0.00000  -0.01805   0.00000  -0.01802   0.00000  -0.01806   0.00000  -0.01806   0.00000  -0.01806   0.00000  -0.01801   0.00000  -0.01795   0.00000  -0.01788   0.00000  -0.01801   0.00000  -0.01794   0.00000  -0.01799
-18.53088   0.00000  -0.01801   0.00000  -0.01801   0.00000  -0.01802   0.00000  -0.01814   0.00000  -0.01795   0.00000  -0.01798   0.00000  -0.01808   0.00000  -0.01798   0.00000  -0.01795   0.00000  -0.01803   0.00000  -0.01796   0.00000  -0.01795   0.00000  -0.01802   0.00000  -0.01806   0.00000  -0.01805   0.00000  -0.01802   0.00000  -0.01806   0.00000  -0.01806   0.00000  -0.01806   0.00000  -0.01801   0.00000  -0.01795   0.00000  -0.01788   0.00000  -0.01801   0.00000  -0.01794   0.00000  -0.01799
-18.48080   0.00000  -0.01801   0.00000  -0.01801   0.00000  -0.01802   0.00000  -0.01814   0.00000  -0.01795   0.00000  -0.01798   0.00000  -0.01808   0.00000  -0.01798   0.00000  -0.01795   0.00000  -0.01803   0.00000  -0.01796   0.00000  -0.01795   0.00000  -0.01802   0.00000  -0.01806   0.00000  -0.01805   0.00000  -0.01802   0.00000  -0.01806   0.00000  -0.01806   0.00000  -0.01806   0.00000  -0.01801   0.00000  -0.01795   0.00000  -0.01788   0.00000  -0.01801   0.00000  -0.01794   0.00000  -0.01799
-18.43072   0.00000  -0.01801   0.00000  -0.01801   0.00000  -0.01802   0.00000  -0.01814   0.00000  -0.01795   0.00000  -0.01798   0.00000  -0.01808   0.00000  -0.01798   0.00000  -0.01795   0.00000  -0.01803   0.00000  -0.01796   0.00000  -0.01795   0.00000  -0.01802   0.00000  -0.01806   0.00000  -0.01805   0.00000  -0.01802   0.00000  -0.01806   0.00000  -0.01806   0.00000  -0.01806   0.00000  -0.01801   0.00000  -0.01795   0.00000  -0.01788   0.00000  -0.01801   0.00000  -0.01794   0.00000  -0.01799
-18.38063   0.00000  -0.01801   0.00000  -0.01801   0.00000  -0.01802   0.00000  -0.01814   0.00000  -0.01795   0.00000  -0.01798   0.00000  -0.01808   0.00000  -0.01798   0.00000  -0.01795   0.00000  -0.01803   0.00000  -0.01796   0.00000  -0.01795   0.00000  -0.01802   0.00000  -0.01806   0.00000  -0.01805   0.00000  -0.01802   0.00000  -0.01806   0.00000  -0.01806   0.00000  -0.01806   0.00000  -0.01801   0.00000  -0.01795   0.00000  -0.01788   0.00000  -0.01801   0.00000  -0.01794   0.00000  -0.01799
-18.33055   0.00000  -0.01801   0.00000  -0.01801   0.00000  -0.01802   0.00000  -0.01814   0.00000  -0.01795   0.00000  -0.01798   0.00000  -0.01808   0.00000  -0.01798   0.00000  -0.01795   0.00000  -0.01803   0.00000  -0.01796   0.00000  -0.01795   0.00000  -0.01802   0.00000  -0.01806   0.00000  -0.01805   0.00000  -0.01802   0.00000  -0.01806   0.00000  -0.01806   0.00000  -0.01806   0.00000  -0.01801   0.00000  -0.01795   0.00000  -0.01788   0.00000  -0.01801   0.00000  -0.01794   0.00000  -0.01799
-18.28047   0.00000  -0.01801   0.00000  -0.01801   0.00000  -0.01802   0.00000  -0.01814   0.00000  -0.01795   0.00000  -0.01798   0.00000  -0.01808   0.00000  -0.01798   0.00000  -0.01795   0.00000  -0.01803   0.00000  -0.01796   0.00000  -0.01795   0.00000  -0.01802   0.00000  -0.01806   0.00000  -0.01805   0.00000  -0.01802   0.00000  -0.01806   0.00000  -0.01806   0.00000  -0.01806   0.00000  -0.01801   0.00000  -0.01795   0.00000  -0.01788   0.00000  -0.01801   0.00000  -0.01794   0.00000  -0.01799
-18.23038   0.00000  -0.01801   0.00000  -0.01801   0.00000  -0.01802   0.00000  -0.01814   0.00000  -0.01795   0.00000  -0.01798   0.00000  -0.01808   0.00000  -0.01798   0.00000  -0.01795   0.00000  -0.01803   0.00000  -0.01796   0.00000  -0.01795   0.00000  -0.01802   0.00000  -0.01806   0.00000  -0.01805   0.00000  -0.01802   0.00000  -0.01806   0.00000  -0.01806   0.00000  -0.01806   0.00000  -0.01801   0.00000  -0.01795   0.00000  -0.01788   0.00000  -0.01801   0.00000  -0.01794   0.00000  -0.01799
-18.18030   0.00000  -0.01801   0.00000  -0.01801   0.00000  -0.01802   0.00000  -0.01814   0.00000  -0.01795   0.00000  -0.01798   0.00000  -0.01808   0.00000  -0.01798   0.00000  -0.01795   0.00000  -0.01803   0.00000  -0.01796   0.00000  -0.01795   0.00000  -0.01802   0.00000  -0.01806   0.00000  -0.01805   0.00000  -0.01802   0.00000  -0.01806   0.00000  -0.01806   0.00000  -0.01806   0.00000  -0.01801   0.00000  -0.01795   0.00000  -0.01788   0.00000  -0.01801   0.00000  -0.01794   0.00000  -0.01799
-18.13022   0.00000  -0.01801   0.00000  -0.01801   0.00000  -0.01802   0.00000  -0.01814   0.00000  -0.01795   0.00000  -0.01798   0.00000  -0.01808   0.00000  -0.01798   0.00000  -0.01795   0.00000  -0.01803   0.00000  -0.01796   0.00000  -0.01795   0.00000  -0.01802   0.00000  -0.01806   0.00000  -0.01805   0.00000  -0.01802   0.00000  -0.01806   0.00000  -0.01806   0.00000  -0.01806   0.00000  -0.01801   0.00000  -0.01795   0.00000  -0.01788   0.00000  -0.01801   0.00000  -0.01794   0.00000  -0.01799
-18.08013   0.00000  -0.01801   0.00000  -0.01801   0.00000  -0.01802   0.00000  -0.01814   0.00000  -0.01795   0.00000  -0.01798   0.00000  -0.01808   0.00000  -0.01798   0.00000  -0.01795   0.00000  -0.01803   0.00000  -0.01796   0.00000  -0.01795   0.00000  -0.01802   0.00000  -0.01806   0.00000  -0.01805   0.00000  -0.01802   0.00000  -0.01806   0.00000  -0.01806   0.00000  -0.01806   0.00000  -0.01801   0.00000  -0.01795   0.00000  -0.01788   0.00000  -0.01801   0.00000  -0.01794   0.00000  -0.01799
-18.03005   0.00000  -0.01801   0.00000  -0.01801   0.00000  -0.01802   0.00000  -0.01814   0.00000  -0.01795   0.00000  -0.01798   0.00000  -0.01808   0.00000  -0.01798   0.00000  -0.01795   0.00000  -0.01803   0.00000  -0.01796   0.00000  -0.01795   0.00000  -0.01802   0.00000  -0.01806   0.00000  -0.01805   0.00000  -0.01802   0.00000  -0.01806   0.00000  -0.01806   0.00000  -0.01806   0.00000  -0.01801   0.00000  -0.01795   0.00000  -0.01788   0.00000  -0.01801   0.00000  -0.01794   0.00000  -0.01799
-17.97997   0.00000  -0.01801   0.00000  -0.01801   0.00000  -0.01802   0.00000  -0.01814   0.00000  -0.01795   0.00000  -0.01798   0.00000  -0.01808   0.00000  -0.01798   0.00000  -0.01795   0.00000  -0.01803   0.00000  -0.01796   0.00000  -0.01795   0.00000  -0.01802   0.00000  -0.01806   0.00000  -0.01805   0.00000  -0.01802   0.00000  -0.01806   0.00000  -0.01806   0.00000  -0.01806   0.00000  -0.01801   0.00000  -0.01795   0.00000  -0.01788   0.00000  -0.01801   0.00000  -0.01794   0.00000  -0.01799
-17.92988   0.00000  -0.01801   0.00000  -0.01801   0.00000  -0.01802   0.00000  -0.01814   0.00000  -0.01795   0.00000  -0.01798   0.00000  -0.01808   0.00000  -0.01798   0.00000  -0.01795   0.00000  -0.01803   0.00000  -0.01796   0.00000  -0.01795   0.00000  -0.01802   0.00000  -0.01806   0.00000  -0.01805   0.00000  -0.01802   0.00000  -0.01806   0.00000  -0.01806   0.00000  -0.01806   0.00000  -0.01801   0.00000  -0.01795   0.00000  -0.01788   0.00000  -0.01801   0.00000  -0.01794   0.00000  -0.01799
-17.87980   0.00000  -0.01801   0.00000  -0.01801   0.00000  -0.01802   0.00000  -0.01814   0.00000  -0.01795   0.00000  -0.01798   0.00000  -0.01808   0.00000  -0.01798   0.00000  -0.01795   0.00000  -0.01803   0.00000  -0.01796   0.00000  -0.01795   0.00000  -0.01802   0.00000  -0.01806   0.00000  -0.01805   0.00000  -0.01802   0.00000  -0.01806   0.00000  -0.01806   0.00000  -0.01806   0.00000  -0.01801   0.00000  -0.01795   0.00000  -0.01788   0.00000  -0.01801   0.00000  -0.01794   0.00000  -0.01799
-17.82972   0.00000  -0.01801   0.00000  -0.01801   0.00000  -0.01802   0.00000  -0.01814   0.00000  -0.01795   0.00000  -0.01798   0.00000  -0.01808   0.00000  -0.01798   0.00000  -0.01795   0.00000  -0.01803   0.00000  -0.01796   0.00000  -0.01795   0.00000  -0.01802   0.00000  -0.01806   0.00000  -0.01805   0.00000  -0.01802   0.00000  -0.01806   0.00000  -0.01806   0.00000  -0.01806   0.00000  -0.01801   0.00000  -0.01795   0.00000  -0.01788   0.00000  -0.01801   0.00000  -0.01794   0.00000  -0.01799
-17.77963   0.00000  -0.01801   0.00000  -0.01801   0.00000  -0.01802   0.00000  -0.01814   0.00000  -0.01795   0.00000  -0.01798   0.00000  -0.01808   0.00000  -0.01798   0.00000  -0.01795   0.00000  -0.01803   0.00000  -0.01796   0.00000  -0.01795   0.00000  -0.01802   0.00000  -0.01806   0.00000  -0.01805   0.00000  -0.01802   0.00000  -0.01806   0.00000  -0.01806   0.00000  -0.01806   0.00000  -0.01801   0.00000  -0.01795   0.00000  -0.01788   0.00000  -0.01801   0.00000  -0.01794   0.00000  -0.01799
-17.72955   0.00000  -0.01801   0.00000  -0.01801   0.00000  -0.01802   0.00000  -0.01814   0.00000  -0.01795   0.00000  -0.01798   0.00000  -0.01808   0.00000  -0.01798   0.00000  -0.01795   0.00000  -0.01803   0.00000  -0.01796   0.00000  -0.01795   0.00000  -0.01802   0.00000  -0.01806   0.00000  -0.01805   0.00000  -0.01802   0.00000  -0.01806   0.00000  -0.01806   0.00000  -0.01806   0.00000  -0.01801   0.00000  -0.01795   0.00000  -0.01788   0.00000  -0.01801   0.00000  -0.01794   0.00000  -0.01799
-17.67947   0.00000  -0.01801   0.00000  -0.01801   0.00000  -0.01802   0.00000  -0.01814   0.00000  -0.01795   0.00000  -0.01798   0.00000  -0.01808   0.00000  -0.01798   0.00000  -0.01795   0.00000  -0.01803   0.00000  -0.01796   0.00000  -0.01795   0.00000  -0.01802   0.00000  -0.01806   0.00000  -0.01805   0.00000  -0.01802   0.00000  -0.01806   0.00000  -0.01806   0.00000  -0.01806   0.00000  -0.01801   0.00000  -0.01795   0.00000  -0.01788   0.00000  -0.01801   0.00000  -0.01794   0.00000  -0.01799
-17.62938   0.00000  -0.01801   0.00000  -0.01801   0.00000  -0.01802   0.00000  -0.01814   0.00000  -0.01795   0.00000  -0.01798   0.00000  -0.01808   0.00000  -0.01798   0.00000  -0.01795   0.00000  -0.01803   0.00000  -0.01796   0.00000  -0.01795   0.00000  -0.01802   0.00000  -0.01806   0.00000  -0.01805   0.00000  -0.01802   0.00000  -0.01806   0.00000  -0.01806   0.00000  -0.01806   0.00000  -0.01801   0.00000  -0.01795   0.00000  -0.01788   0.00000  -0.01801   0.00000  -0.01794   0.00000  -0.01799
-17.57930   0.00000  -0.01801   0.00000  -0.01801   0.00000  -0.01802   0.00000  -0.01814   0.00000  -0.01795   0.00000  -0.01798   0.00000  -0.01808   0.00000  -0.01798   0.00000  -0.01795   0.00000  -0.01803   0.00000  -0.01796   0.00000  -0.01795   0.00000  -0.01802   0.00000  -0.01806   0.00000  -0.01805   0.00000  -0.01802   0.00000  -0.01806   0.00000  -0.01806   0.00000  -0.01806   0.00000  -0.01801   0.00000  -0.01795   0.00000  -0.01788   0.00000  -0.01801   0.00000  -0.01794   0.00000  -0.01799
-17.52922   0.00000  -0.01801   0.00000  -0.01801   0.00000  -0.01802   0.00000  -0.01814   0.00000  -0.01795   0.00000  -0.01798   0.00000  -0.01808   0.00000  -0.01798   0.00000  -0.01795   0.00000  -0.01803   0.00000  -0.01796   0.00000  -0.01795   0.00000  -0.01802   0.00000  -0.01806   0.00000  -0.01805   0.00000  -0.01802   0.00000  -0.01806   0.00000  -0.01806   0.00000  -0.01806   0.00000  -0.01801   0.00000  -0.01795   0.00000  -0.01788   0.00000  -0.01801   0.00000  -0.01794   0.00000  -0.01799
-17.47913   0.00000  -0.01801   0.00000  -0.01801   0.00000  -0.01802   0.00000  -0.01814   0.00000  -0.01795   0.00000  -0.01798   0.00000  -0.01808   0.00000  -0.01798   0.00000  -0.01795   0.00000  -0.01803   0.00000  -0.01796   0.00000  -0.01795   0.00000  -0.01802   0.00000  -0.01806   0.00000  -0.01805   0.00000  -0.01802   0.00000  -0.01806   0.00000  -0.01806   0.00000  -0.01806   0.00000  -0.01801   0.00000  -0.01795   0.00000  -0.01788   0.00000  -0.01801   0.00000  -0.01794   0.00000  -0.01799
-17.42905   0.00000  -0.01801   0.00000  -0.01801   0.00000  -0.01802   0.00000  -0.01814   0.00000  -0.01795   0.00000  -0.01798   0.00000  -0.01808   0.00000  -0.01798   0.00000  -0.01795   0.00000  -0.01803   0.00000  -0.01796   0.00000  -0.01795   0.00000  -0.01802   0.00000  -0.01806   0.00000  -0.01805   0.00000  -0.01802   0.00000  -0.01806   0.00000  -0.01806   0.00000  -0.01806   0.00000  -0.01801   0.00000  -0.01795   0.00000  -0.01788   0.00000  -0.01801   0.00000  -0.01794   0.00000  -0.01799
-17.37896   0.00000  -0.01801   0.00000  -0.01801   0.00000  -0.01802   0.00000  -0.01814   0.00000  -0.01795   0.00000  -0.01798   0.00000  -0.01808   0.00000  -0.01798   0.00000  -0.01795   0.00000  -0.01803   0.00000  -0.01796   0.00000  -0.01795   0.00000  -0.01802   0.00000  -0.01806   0.00000  -0.01805   0.00000  -0.01802   0.00000  -0.01806   0.00000  -0.01806   0.00000  -0.01806   0.00000  -0.01801   0.00000  -0.01795   0.00000  -0.01788   0.00000  -0.01801   0.00000  -0.01794   0.00000  -0.01799
-17.32888   0.00000  -0.01801   0.00000  -0.01801   0.00000  -0.01802   0.00000  -0.01814   0.00000  -0.01795   0.00000  -0.01798   0.00000  -0.01808   0.00000  -0.01798   0.00000  -0.01795   0.00000  -0.01803   0.00000  -0.01796   0.00000  -0.01795   0.00000  -0.01802   0.00000  -0.01806   0.00000  -0.01805   0.00000  -0.01802   0.00000  -0.01806   0.00000  -0.01806   0.00000  -0.01806   0.00000  -0.01801   0.00000  -0.01795   0.00000  -0.01788   0.00000  -0.01801   0.00000  -0.01794   0.00000  -0.01799
-17.27880   0.00000  -0.01801   0.00000  -0.01801   0.00000  -0.01802   0.00000  -0.01814   0.00000  -0.01795   0.00000  -0.01798   0.00000  -0.01808   0.00000  -0.01798   0.00000  -0.01795   0.00000  -0.01803   0.00000  -0.01796   0.00000  -0.01795   0.00000  -0.01802   0.00000  -0.01806   0.00000  -0.01805   0.00000  -0.01802   0.00000  -0.01806   0.00000  -0.01806   0.00000  -0.01806   0.00000  -0.01801   0.00000  -0.01795   0.00000  -0.01788   0.00000  -0.01801   0.00000  -0.01794   0.00000  -0.01799