  COHP#    atomMU    atomNU   distance   translation   ICOHP (at) eF 
                                                          for spin 1 
      1       Ge1       Te6    2.95109    -1   0   0        -1.83649 
      2       Ge1       Te6    2.95109     0   0   0        -1.83501 
      3       Ge1       Te7    2.95109     0  -1   0        -1.81557 
      4       Ge1       Te7    2.95109     0   0   0        -1.81330 
      5       Ge1       Te8    2.95109     0   0  -1        -1.80400 
      6       Ge1       Te8    2.95109     0   0   0        -1.80450 
      7       Ge2       Te5    2.95109    -1   0   0        -1.83478 
      8       Ge2       Te5    2.95109     0   0   0        -1.83750 
      9       Ge2       Te7    2.95109     0   0   0        -1.80298 
     10       Ge2       Te7    2.95109     0   0   1        -1.80684 
     11       Ge2       Te8    2.95109     0   0   0        -1.81432 
     12       Ge2       Te8    2.95109     0   1   0        -1.81704 
     13       Ge3       Te5    2.95109     0  -1   0        -1.81564 
     14       Ge3       Te5    2.95109     0   0   0        -1.81466 
     15       Ge3       Te6    2.95109     0   0   0        -1.80542 
     16       Ge3       Te6    2.95109     0   0   1        -1.80335 
     17       Ge3       Te8    2.95109     0   0   0        -1.83333 
     18       Ge3       Te8    2.95109     1   0   0        -1.83499 
     19       Ge4       Te5    2.95109     0   0  -1        -1.80650 
     20       Ge4       Te5    2.95109     0   0   0        -1.80420 
     21       Ge4       Te6    2.95109     0   0   0        -1.81638 
     22       Ge4       Te6    2.95109     0   1   0        -1.81691 
     23       Ge4       Te7    2.95109     0   0   0        -1.83765 
     24       Ge4       Te7    2.95109     1   0   0        -1.83488 